# vtk DataFile Version 2.0
generated by CFD-lab course output (written by Tobias Neckel) 
ASCII

DATASET STRUCTURED_GRID
DIMENSIONS  23 13 1 
POINTS 299 float

0.000000 0.000000 0
0.454545 0.000000 0
0.909091 0.000000 0
1.363636 0.000000 0
1.818182 0.000000 0
2.272727 0.000000 0
2.727273 0.000000 0
3.181818 0.000000 0
3.636364 0.000000 0
4.090909 0.000000 0
4.545455 0.000000 0
5.000000 0.000000 0
5.454545 0.000000 0
5.909091 0.000000 0
6.363636 0.000000 0
6.818182 0.000000 0
7.272727 0.000000 0
7.727273 0.000000 0
8.181818 0.000000 0
8.636364 0.000000 0
9.090909 0.000000 0
9.545455 0.000000 0
10.000000 0.000000 0
0.000000 0.166667 0
0.454545 0.166667 0
0.909091 0.166667 0
1.363636 0.166667 0
1.818182 0.166667 0
2.272727 0.166667 0
2.727273 0.166667 0
3.181818 0.166667 0
3.636364 0.166667 0
4.090909 0.166667 0
4.545455 0.166667 0
5.000000 0.166667 0
5.454545 0.166667 0
5.909091 0.166667 0
6.363636 0.166667 0
6.818182 0.166667 0
7.272727 0.166667 0
7.727273 0.166667 0
8.181818 0.166667 0
8.636364 0.166667 0
9.090909 0.166667 0
9.545455 0.166667 0
10.000000 0.166667 0
0.000000 0.333333 0
0.454545 0.333333 0
0.909091 0.333333 0
1.363636 0.333333 0
1.818182 0.333333 0
2.272727 0.333333 0
2.727273 0.333333 0
3.181818 0.333333 0
3.636364 0.333333 0
4.090909 0.333333 0
4.545455 0.333333 0
5.000000 0.333333 0
5.454545 0.333333 0
5.909091 0.333333 0
6.363636 0.333333 0
6.818182 0.333333 0
7.272727 0.333333 0
7.727273 0.333333 0
8.181818 0.333333 0
8.636364 0.333333 0
9.090909 0.333333 0
9.545455 0.333333 0
10.000000 0.333333 0
0.000000 0.500000 0
0.454545 0.500000 0
0.909091 0.500000 0
1.363636 0.500000 0
1.818182 0.500000 0
2.272727 0.500000 0
2.727273 0.500000 0
3.181818 0.500000 0
3.636364 0.500000 0
4.090909 0.500000 0
4.545455 0.500000 0
5.000000 0.500000 0
5.454545 0.500000 0
5.909091 0.500000 0
6.363636 0.500000 0
6.818182 0.500000 0
7.272727 0.500000 0
7.727273 0.500000 0
8.181818 0.500000 0
8.636364 0.500000 0
9.090909 0.500000 0
9.545455 0.500000 0
10.000000 0.500000 0
0.000000 0.666667 0
0.454545 0.666667 0
0.909091 0.666667 0
1.363636 0.666667 0
1.818182 0.666667 0
2.272727 0.666667 0
2.727273 0.666667 0
3.181818 0.666667 0
3.636364 0.666667 0
4.090909 0.666667 0
4.545455 0.666667 0
5.000000 0.666667 0
5.454545 0.666667 0
5.909091 0.666667 0
6.363636 0.666667 0
6.818182 0.666667 0
7.272727 0.666667 0
7.727273 0.666667 0
8.181818 0.666667 0
8.636364 0.666667 0
9.090909 0.666667 0
9.545455 0.666667 0
10.000000 0.666667 0
0.000000 0.833333 0
0.454545 0.833333 0
0.909091 0.833333 0
1.363636 0.833333 0
1.818182 0.833333 0
2.272727 0.833333 0
2.727273 0.833333 0
3.181818 0.833333 0
3.636364 0.833333 0
4.090909 0.833333 0
4.545455 0.833333 0
5.000000 0.833333 0
5.454545 0.833333 0
5.909091 0.833333 0
6.363636 0.833333 0
6.818182 0.833333 0
7.272727 0.833333 0
7.727273 0.833333 0
8.181818 0.833333 0
8.636364 0.833333 0
9.090909 0.833333 0
9.545455 0.833333 0
10.000000 0.833333 0
0.000000 1.000000 0
0.454545 1.000000 0
0.909091 1.000000 0
1.363636 1.000000 0
1.818182 1.000000 0
2.272727 1.000000 0
2.727273 1.000000 0
3.181818 1.000000 0
3.636364 1.000000 0
4.090909 1.000000 0
4.545455 1.000000 0
5.000000 1.000000 0
5.454545 1.000000 0
5.909091 1.000000 0
6.363636 1.000000 0
6.818182 1.000000 0
7.272727 1.000000 0
7.727273 1.000000 0
8.181818 1.000000 0
8.636364 1.000000 0
9.090909 1.000000 0
9.545455 1.000000 0
10.000000 1.000000 0
0.000000 1.166667 0
0.454545 1.166667 0
0.909091 1.166667 0
1.363636 1.166667 0
1.818182 1.166667 0
2.272727 1.166667 0
2.727273 1.166667 0
3.181818 1.166667 0
3.636364 1.166667 0
4.090909 1.166667 0
4.545455 1.166667 0
5.000000 1.166667 0
5.454545 1.166667 0
5.909091 1.166667 0
6.363636 1.166667 0
6.818182 1.166667 0
7.272727 1.166667 0
7.727273 1.166667 0
8.181818 1.166667 0
8.636364 1.166667 0
9.090909 1.166667 0
9.545455 1.166667 0
10.000000 1.166667 0
0.000000 1.333333 0
0.454545 1.333333 0
0.909091 1.333333 0
1.363636 1.333333 0
1.818182 1.333333 0
2.272727 1.333333 0
2.727273 1.333333 0
3.181818 1.333333 0
3.636364 1.333333 0
4.090909 1.333333 0
4.545455 1.333333 0
5.000000 1.333333 0
5.454545 1.333333 0
5.909091 1.333333 0
6.363636 1.333333 0
6.818182 1.333333 0
7.272727 1.333333 0
7.727273 1.333333 0
8.181818 1.333333 0
8.636364 1.333333 0
9.090909 1.333333 0
9.545455 1.333333 0
10.000000 1.333333 0
0.000000 1.500000 0
0.454545 1.500000 0
0.909091 1.500000 0
1.363636 1.500000 0
1.818182 1.500000 0
2.272727 1.500000 0
2.727273 1.500000 0
3.181818 1.500000 0
3.636364 1.500000 0
4.090909 1.500000 0
4.545455 1.500000 0
5.000000 1.500000 0
5.454545 1.500000 0
5.909091 1.500000 0
6.363636 1.500000 0
6.818182 1.500000 0
7.272727 1.500000 0
7.727273 1.500000 0
8.181818 1.500000 0
8.636364 1.500000 0
9.090909 1.500000 0
9.545455 1.500000 0
10.000000 1.500000 0
0.000000 1.666667 0
0.454545 1.666667 0
0.909091 1.666667 0
1.363636 1.666667 0
1.818182 1.666667 0
2.272727 1.666667 0
2.727273 1.666667 0
3.181818 1.666667 0
3.636364 1.666667 0
4.090909 1.666667 0
4.545455 1.666667 0
5.000000 1.666667 0
5.454545 1.666667 0
5.909091 1.666667 0
6.363636 1.666667 0
6.818182 1.666667 0
7.272727 1.666667 0
7.727273 1.666667 0
8.181818 1.666667 0
8.636364 1.666667 0
9.090909 1.666667 0
9.545455 1.666667 0
10.000000 1.666667 0
0.000000 1.833333 0
0.454545 1.833333 0
0.909091 1.833333 0
1.363636 1.833333 0
1.818182 1.833333 0
2.272727 1.833333 0
2.727273 1.833333 0
3.181818 1.833333 0
3.636364 1.833333 0
4.090909 1.833333 0
4.545455 1.833333 0
5.000000 1.833333 0
5.454545 1.833333 0
5.909091 1.833333 0
6.363636 1.833333 0
6.818182 1.833333 0
7.272727 1.833333 0
7.727273 1.833333 0
8.181818 1.833333 0
8.636364 1.833333 0
9.090909 1.833333 0
9.545455 1.833333 0
10.000000 1.833333 0
0.000000 2.000000 0
0.454545 2.000000 0
0.909091 2.000000 0
1.363636 2.000000 0
1.818182 2.000000 0
2.272727 2.000000 0
2.727273 2.000000 0
3.181818 2.000000 0
3.636364 2.000000 0
4.090909 2.000000 0
4.545455 2.000000 0
5.000000 2.000000 0
5.454545 2.000000 0
5.909091 2.000000 0
6.363636 2.000000 0
6.818182 2.000000 0
7.272727 2.000000 0
7.727273 2.000000 0
8.181818 2.000000 0
8.636364 2.000000 0
9.090909 2.000000 0
9.545455 2.000000 0
10.000000 2.000000 0
POINT_DATA 299 

VECTORS velocity float
0.000000 0.000000 0
0.000000 0.000000 0
0.000000 0.000000 0
0.000000 0.000000 0
0.000000 0.000000 0
0.000000 0.000000 0
0.000000 0.000000 0
0.000000 0.000000 0
0.000000 0.000000 0
0.000000 0.000000 0
0.000000 0.000000 0
0.000000 0.000000 0
0.000000 0.000000 0
0.000000 0.000000 0
0.000000 0.000000 0
0.000000 0.000000 0
0.000000 0.000000 0
0.000000 0.000000 0
0.000000 0.000000 0
0.000000 0.000000 0
0.000000 0.000000 0
0.000000 0.000000 0
0.000000 0.000000 0
0.000000 0.000000 0
0.000000 0.000000 0
0.000000 0.000000 0
0.000000 0.000000 0
0.000000 0.000000 0
0.000000 0.000000 0
0.000000 0.000000 0
0.000000 0.000000 0
0.000000 0.000000 0
0.000000 0.000000 0
0.000000 0.000000 0
0.000000 0.000000 0
0.000000 0.000000 0
0.000000 0.000000 0
0.000000 0.000000 0
0.000000 0.000000 0
0.000000 0.000000 0
0.000000 0.000000 0
0.000000 0.000000 0
0.000000 0.000000 0
0.000000 0.000000 0
0.000000 0.000000 0
0.000000 0.000000 0
0.000000 0.000000 0
0.000000 0.000000 0
0.000000 0.000000 0
0.000000 0.000000 0
0.000000 0.000000 0
0.000000 0.000000 0
0.000000 0.000000 0
0.000000 0.000000 0
0.000000 0.000000 0
0.000000 0.000000 0
0.000000 0.000000 0
0.000000 0.000000 0
0.000000 0.000000 0
0.000000 0.000000 0
0.000000 0.000000 0
0.000000 0.000000 0
0.000000 0.000000 0
0.000000 0.000000 0
0.000000 0.000000 0
0.000000 0.000000 0
0.000000 0.000000 0
0.000000 0.000000 0
0.000000 0.000000 0
0.000000 0.000000 0
0.000000 0.000000 0
0.000000 0.000000 0
0.000000 0.000000 0
0.000000 0.000000 0
0.000000 0.000000 0
0.000000 0.000000 0
0.000000 0.000000 0
0.000000 0.000000 0
0.000000 0.000000 0
0.000000 0.000000 0
0.000000 0.000000 0
0.000000 0.000000 0
0.000000 0.000000 0
0.000000 0.000000 0
0.000000 0.000000 0
0.000000 0.000000 0
0.000000 0.000000 0
0.000000 0.000000 0
0.000000 0.000000 0
0.000000 0.000000 0
0.000000 0.000000 0
0.000000 0.000000 0
0.000000 0.000000 0
0.000000 0.000000 0
0.000000 0.000000 0
0.000000 0.000000 0
0.000000 0.000000 0
0.000000 0.000000 0
0.000000 0.000000 0
-0.032501 0.000000 0
-0.057594 0.000000 0
-0.062389 0.000000 0
-0.063040 0.000000 0
-0.062138 0.000000 0
-0.056022 0.000000 0
0.000000 0.000000 0
0.000000 0.000000 0
0.000000 0.000000 0
0.000000 0.000000 0
0.000000 0.000000 0
0.000000 0.000000 0
0.000000 0.000000 0
0.000000 0.000000 0
0.000000 0.000000 0
0.000000 0.000000 0
0.000000 0.000000 0
0.000000 0.000000 0
0.000000 0.000000 0
0.000000 0.000000 0
0.000000 0.000000 0
0.000000 -0.100000 0
0.000000 -0.087920 0
-0.048746 0.021389 0
-0.099188 0.011122 0
-0.106608 0.002044 0
-0.107559 -0.000162 0
-0.106242 -0.002742 0
-0.098532 -0.023016 0
0.000000 -0.120668 0
0.000000 -0.100000 0
0.000000 0.000000 0
0.000000 0.000000 0
0.000000 0.000000 0
0.000000 0.000000 0
0.000000 0.000000 0
0.000000 0.000000 0
0.000000 0.000000 0
0.000000 0.000000 0
0.500000 0.000000 0
0.000000 0.000000 0
0.000000 0.000000 0
0.000000 0.000000 0
0.000000 0.000000 0
0.000000 -0.100000 0
0.000000 -0.081930 0
-0.044556 0.036685 0
-0.051493 0.021391 0
-0.051832 0.003113 0
-0.051867 -0.000224 0
-0.051585 -0.003509 0
-0.044670 -0.039222 0
0.000000 -0.136273 0
0.000000 -0.100000 0
0.000000 0.000000 0
0.000000 0.000000 0
0.000000 0.000000 0
0.000000 0.000000 0
0.000000 0.000000 0
0.000000 0.000000 0
0.000000 0.000000 0
0.000000 0.000000 0
1.000000 0.000000 0
0.000000 0.000000 0
0.000000 0.000000 0
0.000000 0.000000 0
0.000000 0.000000 0
0.000000 -0.100000 0
0.000000 -0.071514 0
0.049476 0.040361 0
0.100307 0.013816 0
0.107896 0.002173 0
0.108778 -0.000292 0
0.107177 -0.005443 0
0.099032 -0.042002 0
0.000000 -0.137084 0
0.000000 -0.100000 0
0.000000 0.000000 0
0.000000 0.000000 0
0.000000 0.000000 0
0.000000 0.000000 0
0.000000 0.000000 0
0.000000 0.000000 0
0.000000 0.000000 0
0.000000 0.000000 0
1.000000 0.000000 0
0.000000 0.000000 0
0.000000 0.000000 0
0.000000 0.000000 0
0.000000 0.000000 0
0.000000 -0.100000 0
0.000000 -0.100000 0
-0.072213 0.000000 0
-0.039793 0.000000 0
-0.034490 0.000000 0
-0.033875 0.000000 0
-0.035342 0.000000 0
-0.048808 0.000000 0
-0.150000 0.000000 0
0.000000 0.000000 0
0.000000 0.000000 0
0.000000 0.000000 0
0.000000 0.000000 0
0.000000 0.000000 0
0.000000 0.000000 0
0.000000 0.000000 0
0.000000 0.000000 0
0.000000 0.000000 0
1.000000 0.000000 0
0.000000 0.000000 0
0.000000 0.000000 0
0.000000 0.000000 0
0.000000 0.000000 0
0.000000 0.000000 0
0.000000 0.000000 0
-0.150000 0.000000 0
-0.150000 0.000000 0
-0.150000 0.000000 0
-0.150000 0.000000 0
-0.150000 0.000000 0
-0.150000 0.000000 0
-0.150000 0.000000 0
0.000000 0.000000 0
0.000000 0.000000 0
0.000000 0.000000 0
0.000000 0.000000 0
0.000000 0.000000 0
0.000000 0.000000 0
0.000000 0.000000 0
0.000000 0.000000 0
0.000000 0.000000 0
1.000000 0.000000 0
0.000000 0.000000 0
0.000000 0.000000 0
0.000000 0.000000 0
0.000000 0.000000 0
0.000000 0.000000 0
0.000000 0.000000 0
0.000000 0.000000 0
0.000000 0.000000 0
0.000000 0.000000 0
0.000000 0.000000 0
0.000000 0.000000 0
0.000000 0.000000 0
0.000000 0.000000 0
0.000000 0.000000 0
0.000000 0.000000 0
0.000000 0.000000 0
0.000000 0.000000 0
0.000000 0.000000 0
0.000000 0.000000 0
0.000000 0.000000 0
0.000000 0.000000 0
0.000000 0.000000 0
1.000000 0.000000 0
0.000000 0.000000 0
0.000000 0.000000 0
0.000000 0.000000 0
0.000000 0.000000 0
0.000000 0.000000 0
0.000000 0.000000 0
0.000000 0.000000 0
0.000000 0.000000 0
0.000000 0.000000 0
0.000000 0.000000 0
0.000000 0.000000 0
0.000000 0.000000 0
0.000000 0.000000 0
0.000000 0.000000 0
0.000000 0.000000 0
0.000000 0.000000 0
0.000000 0.000000 0
0.000000 0.000000 0
0.000000 0.000000 0
0.000000 0.000000 0
0.000000 0.000000 0
0.000000 0.000000 0
0.500000 0.000000 0
0.000000 0.000000 0
0.000000 0.000000 0
0.000000 0.000000 0
0.000000 0.000000 0
0.000000 0.000000 0
0.000000 0.000000 0
0.000000 0.000000 0
0.000000 0.000000 0
0.000000 0.000000 0
0.000000 0.000000 0
0.000000 0.000000 0
0.000000 0.000000 0
0.000000 0.000000 0
0.000000 0.000000 0
0.000000 0.000000 0
0.000000 0.000000 0
0.000000 0.000000 0
0.000000 0.000000 0
0.000000 0.000000 0
0.000000 0.000000 0
0.000000 0.000000 0
0.000000 0.000000 0

CELL_DATA 264 
SCALARS pressure float 1 
LOOKUP_TABLE default 
0.000000
0.000000
0.000000
0.000000
0.000000
0.000000
0.000000
0.000000
0.000000
0.000000
0.000000
0.000000
0.000000
0.000000
0.000000
0.000000
0.000000
0.000000
0.000000
0.000000
0.000000
0.000000
0.000000
0.000000
0.000000
0.000000
0.000000
0.000000
0.000000
0.000000
0.000000
0.000000
0.000000
0.000000
0.000000
0.000000
0.000000
0.000000
0.000000
0.000000
0.000000
0.000000
0.000000
0.000000
0.000000
0.000000
0.000000
0.000000
0.000000
0.000000
0.000000
0.000000
0.000000
0.000000
0.000000
0.000000
0.000000
0.000000
0.000000
0.000000
0.000000
0.000000
0.000000
0.000000
0.000000
0.000000
0.000000
0.000000
0.000000
0.000000
0.000000
0.000000
-0.503505
-0.432594
-0.306934
-0.170812
-0.033271
0.102302
0.224531
0.000000
0.000000
0.000000
0.000000
0.000000
0.000000
0.000000
0.000000
0.000000
0.000000
0.000000
0.000000
0.000000
0.000000
-0.503505
-0.503505
-0.432594
-0.306934
-0.170812
-0.033271
0.102302
0.224531
0.224531
0.000000
0.000000
0.000000
0.000000
0.000000
0.000000
0.000000
0.000000
0.000000
0.000000
0.000000
0.000000
0.000000
-0.487396
-0.487396
-0.411042
-0.279384
-0.141998
-0.003956
0.133181
0.266839
0.266839
0.000000
0.000000
0.000000
0.000000
0.000000
0.000000
0.000000
0.000000
0.000000
0.000000
0.000000
0.000000
0.000000
-0.436079
-0.436079
-0.345933
-0.201605
-0.062267
0.076492
0.215541
0.383630
0.383630
0.000000
0.000000
0.000000
0.000000
0.000000
0.000000
0.000000
0.000000
0.000000
0.000000
0.000000
0.000000
0.000000
-0.395094
-0.395094
-0.266433
-0.114158
0.026548
0.165911
0.308476
0.521071
0.521071
0.000000
0.000000
0.000000
0.000000
0.000000
0.000000
0.000000
0.000000
0.000000
0.000000
0.000000
0.000000
0.000000
0.000000
-0.395094
-0.266433
-0.114158
0.026548
0.165911
0.308476
0.521071
0.000000
0.000000
0.000000
0.000000
0.000000
0.000000
0.000000
0.000000
0.000000
0.000000
0.000000
0.000000
0.000000
0.000000
0.000000
0.000000
0.000000
0.000000
0.000000
0.000000
0.000000
0.000000
0.000000
0.000000
0.000000
0.000000
0.000000
0.000000
0.000000
0.000000
0.000000
0.000000
0.000000
0.000000
0.000000
0.000000
0.000000
0.000000
0.000000
0.000000
0.000000
0.000000
0.000000
0.000000
0.000000
0.000000
0.000000
0.000000
0.000000
0.000000
0.000000
0.000000
0.000000
0.000000
0.000000
0.000000
0.000000
0.000000
0.000000
0.000000
0.000000
0.000000
0.000000
0.000000
0.000000
0.000000
0.000000
0.000000
0.000000
0.000000
0.000000
0.000000
0.000000
0.000000
0.000000
