# vtk DataFile Version 2.0
generated by CFD-lab course output (written by Tobias Neckel) 
ASCII

DATASET STRUCTURED_GRID
DIMENSIONS  23 13 1 
POINTS 299 float

0.000000 0.000000 0
0.454545 0.000000 0
0.909091 0.000000 0
1.363636 0.000000 0
1.818182 0.000000 0
2.272727 0.000000 0
2.727273 0.000000 0
3.181818 0.000000 0
3.636364 0.000000 0
4.090909 0.000000 0
4.545455 0.000000 0
5.000000 0.000000 0
5.454545 0.000000 0
5.909091 0.000000 0
6.363636 0.000000 0
6.818182 0.000000 0
7.272727 0.000000 0
7.727273 0.000000 0
8.181818 0.000000 0
8.636364 0.000000 0
9.090909 0.000000 0
9.545455 0.000000 0
10.000000 0.000000 0
0.000000 0.166667 0
0.454545 0.166667 0
0.909091 0.166667 0
1.363636 0.166667 0
1.818182 0.166667 0
2.272727 0.166667 0
2.727273 0.166667 0
3.181818 0.166667 0
3.636364 0.166667 0
4.090909 0.166667 0
4.545455 0.166667 0
5.000000 0.166667 0
5.454545 0.166667 0
5.909091 0.166667 0
6.363636 0.166667 0
6.818182 0.166667 0
7.272727 0.166667 0
7.727273 0.166667 0
8.181818 0.166667 0
8.636364 0.166667 0
9.090909 0.166667 0
9.545455 0.166667 0
10.000000 0.166667 0
0.000000 0.333333 0
0.454545 0.333333 0
0.909091 0.333333 0
1.363636 0.333333 0
1.818182 0.333333 0
2.272727 0.333333 0
2.727273 0.333333 0
3.181818 0.333333 0
3.636364 0.333333 0
4.090909 0.333333 0
4.545455 0.333333 0
5.000000 0.333333 0
5.454545 0.333333 0
5.909091 0.333333 0
6.363636 0.333333 0
6.818182 0.333333 0
7.272727 0.333333 0
7.727273 0.333333 0
8.181818 0.333333 0
8.636364 0.333333 0
9.090909 0.333333 0
9.545455 0.333333 0
10.000000 0.333333 0
0.000000 0.500000 0
0.454545 0.500000 0
0.909091 0.500000 0
1.363636 0.500000 0
1.818182 0.500000 0
2.272727 0.500000 0
2.727273 0.500000 0
3.181818 0.500000 0
3.636364 0.500000 0
4.090909 0.500000 0
4.545455 0.500000 0
5.000000 0.500000 0
5.454545 0.500000 0
5.909091 0.500000 0
6.363636 0.500000 0
6.818182 0.500000 0
7.272727 0.500000 0
7.727273 0.500000 0
8.181818 0.500000 0
8.636364 0.500000 0
9.090909 0.500000 0
9.545455 0.500000 0
10.000000 0.500000 0
0.000000 0.666667 0
0.454545 0.666667 0
0.909091 0.666667 0
1.363636 0.666667 0
1.818182 0.666667 0
2.272727 0.666667 0
2.727273 0.666667 0
3.181818 0.666667 0
3.636364 0.666667 0
4.090909 0.666667 0
4.545455 0.666667 0
5.000000 0.666667 0
5.454545 0.666667 0
5.909091 0.666667 0
6.363636 0.666667 0
6.818182 0.666667 0
7.272727 0.666667 0
7.727273 0.666667 0
8.181818 0.666667 0
8.636364 0.666667 0
9.090909 0.666667 0
9.545455 0.666667 0
10.000000 0.666667 0
0.000000 0.833333 0
0.454545 0.833333 0
0.909091 0.833333 0
1.363636 0.833333 0
1.818182 0.833333 0
2.272727 0.833333 0
2.727273 0.833333 0
3.181818 0.833333 0
3.636364 0.833333 0
4.090909 0.833333 0
4.545455 0.833333 0
5.000000 0.833333 0
5.454545 0.833333 0
5.909091 0.833333 0
6.363636 0.833333 0
6.818182 0.833333 0
7.272727 0.833333 0
7.727273 0.833333 0
8.181818 0.833333 0
8.636364 0.833333 0
9.090909 0.833333 0
9.545455 0.833333 0
10.000000 0.833333 0
0.000000 1.000000 0
0.454545 1.000000 0
0.909091 1.000000 0
1.363636 1.000000 0
1.818182 1.000000 0
2.272727 1.000000 0
2.727273 1.000000 0
3.181818 1.000000 0
3.636364 1.000000 0
4.090909 1.000000 0
4.545455 1.000000 0
5.000000 1.000000 0
5.454545 1.000000 0
5.909091 1.000000 0
6.363636 1.000000 0
6.818182 1.000000 0
7.272727 1.000000 0
7.727273 1.000000 0
8.181818 1.000000 0
8.636364 1.000000 0
9.090909 1.000000 0
9.545455 1.000000 0
10.000000 1.000000 0
0.000000 1.166667 0
0.454545 1.166667 0
0.909091 1.166667 0
1.363636 1.166667 0
1.818182 1.166667 0
2.272727 1.166667 0
2.727273 1.166667 0
3.181818 1.166667 0
3.636364 1.166667 0
4.090909 1.166667 0
4.545455 1.166667 0
5.000000 1.166667 0
5.454545 1.166667 0
5.909091 1.166667 0
6.363636 1.166667 0
6.818182 1.166667 0
7.272727 1.166667 0
7.727273 1.166667 0
8.181818 1.166667 0
8.636364 1.166667 0
9.090909 1.166667 0
9.545455 1.166667 0
10.000000 1.166667 0
0.000000 1.333333 0
0.454545 1.333333 0
0.909091 1.333333 0
1.363636 1.333333 0
1.818182 1.333333 0
2.272727 1.333333 0
2.727273 1.333333 0
3.181818 1.333333 0
3.636364 1.333333 0
4.090909 1.333333 0
4.545455 1.333333 0
5.000000 1.333333 0
5.454545 1.333333 0
5.909091 1.333333 0
6.363636 1.333333 0
6.818182 1.333333 0
7.272727 1.333333 0
7.727273 1.333333 0
8.181818 1.333333 0
8.636364 1.333333 0
9.090909 1.333333 0
9.545455 1.333333 0
10.000000 1.333333 0
0.000000 1.500000 0
0.454545 1.500000 0
0.909091 1.500000 0
1.363636 1.500000 0
1.818182 1.500000 0
2.272727 1.500000 0
2.727273 1.500000 0
3.181818 1.500000 0
3.636364 1.500000 0
4.090909 1.500000 0
4.545455 1.500000 0
5.000000 1.500000 0
5.454545 1.500000 0
5.909091 1.500000 0
6.363636 1.500000 0
6.818182 1.500000 0
7.272727 1.500000 0
7.727273 1.500000 0
8.181818 1.500000 0
8.636364 1.500000 0
9.090909 1.500000 0
9.545455 1.500000 0
10.000000 1.500000 0
0.000000 1.666667 0
0.454545 1.666667 0
0.909091 1.666667 0
1.363636 1.666667 0
1.818182 1.666667 0
2.272727 1.666667 0
2.727273 1.666667 0
3.181818 1.666667 0
3.636364 1.666667 0
4.090909 1.666667 0
4.545455 1.666667 0
5.000000 1.666667 0
5.454545 1.666667 0
5.909091 1.666667 0
6.363636 1.666667 0
6.818182 1.666667 0
7.272727 1.666667 0
7.727273 1.666667 0
8.181818 1.666667 0
8.636364 1.666667 0
9.090909 1.666667 0
9.545455 1.666667 0
10.000000 1.666667 0
0.000000 1.833333 0
0.454545 1.833333 0
0.909091 1.833333 0
1.363636 1.833333 0
1.818182 1.833333 0
2.272727 1.833333 0
2.727273 1.833333 0
3.181818 1.833333 0
3.636364 1.833333 0
4.090909 1.833333 0
4.545455 1.833333 0
5.000000 1.833333 0
5.454545 1.833333 0
5.909091 1.833333 0
6.363636 1.833333 0
6.818182 1.833333 0
7.272727 1.833333 0
7.727273 1.833333 0
8.181818 1.833333 0
8.636364 1.833333 0
9.090909 1.833333 0
9.545455 1.833333 0
10.000000 1.833333 0
0.000000 2.000000 0
0.454545 2.000000 0
0.909091 2.000000 0
1.363636 2.000000 0
1.818182 2.000000 0
2.272727 2.000000 0
2.727273 2.000000 0
3.181818 2.000000 0
3.636364 2.000000 0
4.090909 2.000000 0
4.545455 2.000000 0
5.000000 2.000000 0
5.454545 2.000000 0
5.909091 2.000000 0
6.363636 2.000000 0
6.818182 2.000000 0
7.272727 2.000000 0
7.727273 2.000000 0
8.181818 2.000000 0
8.636364 2.000000 0
9.090909 2.000000 0
9.545455 2.000000 0
10.000000 2.000000 0
POINT_DATA 299 

VECTORS velocity float
0.000000 0.000000 0
0.000000 0.000000 0
0.000000 0.000000 0
0.000000 0.000000 0
0.000000 0.000000 0
0.000000 0.000000 0
0.000000 0.000000 0
0.000000 0.000000 0
0.000000 0.000000 0
0.000000 0.000000 0
0.000000 0.000000 0
0.000000 0.000000 0
0.000000 0.000000 0
0.000000 0.000000 0
0.000000 0.000000 0
0.000000 0.000000 0
0.000000 0.000000 0
0.000000 0.000000 0
0.000000 0.000000 0
0.000000 0.000000 0
0.000000 0.000000 0
0.000000 0.000000 0
0.000000 0.000000 0
0.000000 0.000000 0
0.000000 0.000000 0
0.000000 0.000000 0
0.000000 0.000000 0
0.000000 0.000000 0
0.000000 0.000000 0
0.000000 0.000000 0
0.000000 0.000000 0
0.000000 0.000000 0
0.000000 0.000000 0
0.000000 0.000000 0
0.000000 0.000000 0
0.000000 0.000000 0
0.000000 0.000000 0
0.000000 0.000000 0
0.000000 0.000000 0
0.000000 0.000000 0
0.000000 0.000000 0
0.000000 0.000000 0
0.000000 0.000000 0
0.000000 0.000000 0
0.000000 0.000000 0
0.000000 0.000000 0
0.000000 0.000000 0
0.000000 0.000000 0
0.000000 0.000000 0
0.000000 0.000000 0
0.000000 0.000000 0
0.000000 0.000000 0
0.000000 0.000000 0
0.000000 0.000000 0
0.000000 0.000000 0
0.000000 0.000000 0
0.000000 0.000000 0
0.000000 0.000000 0
0.000000 0.000000 0
0.000000 0.000000 0
0.000000 0.000000 0
0.000000 0.000000 0
0.000000 0.000000 0
0.000000 0.000000 0
0.000000 0.000000 0
0.000000 0.000000 0
0.000000 0.000000 0
0.000000 0.000000 0
0.000000 0.000000 0
0.000000 0.000000 0
0.000000 0.000000 0
0.000000 0.000000 0
0.000000 0.000000 0
0.000000 0.000000 0
0.000000 0.000000 0
0.000000 0.000000 0
0.006727 0.000000 0
0.014324 0.000000 0
0.016366 0.000000 0
0.017002 0.000000 0
0.017841 0.000000 0
0.017781 0.000000 0
0.000000 0.000000 0
0.000000 0.000000 0
0.000000 0.000000 0
0.000000 0.000000 0
0.000000 0.000000 0
0.000000 0.000000 0
0.000000 0.000000 0
0.000000 0.000000 0
0.000000 0.000000 0
0.000000 0.000000 0
0.000000 0.000000 0
0.000000 0.000000 0
0.000000 0.000000 0
0.000000 0.000000 0
0.000000 0.000000 0
0.000000 0.000000 0
0.000000 0.000000 0
0.001255 0.000000 0
0.002532 0.000000 0
0.002847 0.000000 0
0.002928 0.000000 0
0.002990 0.000000 0
0.002981 0.000000 0
0.000000 0.000000 0
0.000000 0.000000 0
0.000000 0.000000 0
0.000000 0.000000 0
0.000000 0.000000 0
0.000000 0.000000 0
0.000000 0.000000 0
0.000000 0.000000 0
0.000000 0.000000 0
0.000000 0.000000 0
0.000000 0.000000 0
0.000000 0.000000 0
0.000000 0.000000 0
0.000000 0.000000 0
0.000000 0.000000 0
0.000000 -0.002552 0
0.000000 -0.000456 0
-0.012470 0.004471 0
-0.025708 0.003034 0
-0.029627 0.000856 0
-0.030747 0.000447 0
-0.031399 0.000176 0
-0.028240 -0.005565 0
0.000000 0.001091 0
0.000000 0.006583 0
0.000000 0.000000 0
0.000000 0.000000 0
0.000000 0.000000 0
0.000000 0.000000 0
0.000000 0.000000 0
0.000000 0.000000 0
0.000000 0.000000 0
0.000000 0.000000 0
0.500000 0.000000 0
0.000000 0.000000 0
0.000000 0.000000 0
0.000000 0.000000 0
0.000000 0.000000 0
0.000000 -0.005623 0
0.000000 -0.000943 0
-0.004005 0.009598 0
-0.005909 0.006380 0
-0.006614 0.001864 0
-0.006783 0.000598 0
-0.006165 -0.001025 0
-0.003301 -0.011651 0
0.000000 0.002088 0
0.000000 0.012517 0
0.000000 0.000000 0
0.000000 0.000000 0
0.000000 0.000000 0
0.000000 0.000000 0
0.000000 0.000000 0
0.000000 0.000000 0
0.000000 0.000000 0
0.000000 0.000000 0
1.000000 0.000000 0
0.000000 0.000000 0
0.000000 0.000000 0
0.000000 0.000000 0
0.000000 0.000000 0
0.000000 -0.004581 0
0.000000 -0.000980 0
0.012870 0.006686 0
0.026313 0.004004 0
0.030311 0.001171 0
0.031384 0.000261 0
0.031882 -0.001133 0
0.028497 -0.007863 0
0.000000 0.001644 0
0.000000 0.008365 0
0.000000 0.000000 0
0.000000 0.000000 0
0.000000 0.000000 0
0.000000 0.000000 0
0.000000 0.000000 0
0.000000 0.000000 0
0.000000 0.000000 0
0.000000 0.000000 0
1.000000 0.000000 0
0.000000 0.000000 0
0.000000 0.000000 0
0.000000 0.000000 0
0.000000 0.000000 0
0.000000 0.000000 0
0.000000 0.000000 0
-0.002669 0.000000 0
-0.004554 0.000000 0
-0.005126 0.000000 0
-0.005280 0.000000 0
-0.005238 0.000000 0
-0.004484 0.000000 0
0.000000 0.000000 0
0.000000 0.000000 0
0.000000 0.000000 0
0.000000 0.000000 0
0.000000 0.000000 0
0.000000 0.000000 0
0.000000 0.000000 0
0.000000 0.000000 0
0.000000 0.000000 0
0.000000 0.000000 0
1.000000 0.000000 0
0.000000 0.000000 0
0.000000 0.000000 0
0.000000 0.000000 0
0.000000 0.000000 0
0.000000 0.000000 0
0.000000 0.000000 0
-0.012546 0.000000 0
-0.022860 0.000000 0
-0.025943 0.000000 0
-0.026775 0.000000 0
-0.026737 0.000000 0
-0.022842 0.000000 0
0.000000 0.000000 0
0.000000 0.000000 0
0.000000 0.000000 0
0.000000 0.000000 0
0.000000 0.000000 0
0.000000 0.000000 0
0.000000 0.000000 0
0.000000 0.000000 0
0.000000 0.000000 0
0.000000 0.000000 0
1.000000 0.000000 0
0.000000 0.000000 0
0.000000 0.000000 0
0.000000 0.000000 0
0.000000 0.000000 0
0.000000 0.000000 0
0.000000 0.000000 0
0.000000 0.000000 0
0.000000 0.000000 0
0.000000 0.000000 0
0.000000 0.000000 0
0.000000 0.000000 0
0.000000 0.000000 0
0.000000 0.000000 0
0.000000 0.000000 0
0.000000 0.000000 0
0.000000 0.000000 0
0.000000 0.000000 0
0.000000 0.000000 0
0.000000 0.000000 0
0.000000 0.000000 0
0.000000 0.000000 0
0.000000 0.000000 0
1.000000 0.000000 0
0.000000 0.000000 0
0.000000 0.000000 0
0.000000 0.000000 0
0.000000 0.000000 0
0.000000 0.000000 0
0.000000 0.000000 0
0.000000 0.000000 0
0.000000 0.000000 0
0.000000 0.000000 0
0.000000 0.000000 0
0.000000 0.000000 0
0.000000 0.000000 0
0.000000 0.000000 0
0.000000 0.000000 0
0.000000 0.000000 0
0.000000 0.000000 0
0.000000 0.000000 0
0.000000 0.000000 0
0.000000 0.000000 0
0.000000 0.000000 0
0.000000 0.000000 0
0.000000 0.000000 0
0.500000 0.000000 0
0.000000 0.000000 0
0.000000 0.000000 0
0.000000 0.000000 0
0.000000 0.000000 0
0.000000 0.000000 0
0.000000 0.000000 0
0.000000 0.000000 0
0.000000 0.000000 0
0.000000 0.000000 0
0.000000 0.000000 0
0.000000 0.000000 0
0.000000 0.000000 0
0.000000 0.000000 0
0.000000 0.000000 0
0.000000 0.000000 0
0.000000 0.000000 0
0.000000 0.000000 0
0.000000 0.000000 0
0.000000 0.000000 0
0.000000 0.000000 0
0.000000 0.000000 0
0.000000 0.000000 0

CELL_DATA 264 
SCALARS pressure float 1 
LOOKUP_TABLE default 
0.000000
0.000000
0.000000
0.000000
0.000000
0.000000
0.000000
0.000000
0.000000
0.000000
0.000000
0.000000
0.000000
0.000000
0.000000
0.000000
0.000000
0.000000
0.000000
0.000000
0.000000
0.000000
0.000000
0.000000
0.000000
0.000000
0.000000
0.000000
0.000000
0.000000
0.000000
0.000000
0.000000
0.000000
0.000000
0.000000
0.000000
0.000000
0.000000
0.000000
0.000000
0.000000
0.000000
0.000000
0.000000
0.000000
0.000000
0.000000
0.000000
0.000000
0.000000
0.000000
0.000000
0.000000
0.000000
0.000000
0.000000
0.000000
0.000000
0.000000
0.000000
0.000000
0.000000
0.000000
0.000000
0.000000
0.000000
0.000000
0.000000
0.000000
0.000000
0.000000
0.003949
0.002467
0.001072
-0.000507
-0.002082
-0.002935
-0.001267
0.000000
0.000000
0.000000
0.000000
0.000000
0.000000
0.000000
0.000000
0.000000
0.000000
0.000000
0.000000
0.000000
0.000000
0.003949
0.003949
0.002467
0.001072
-0.000507
-0.002082
-0.002935
-0.001267
-0.001267
0.000000
0.000000
0.000000
0.000000
0.000000
0.000000
0.000000
0.000000
0.000000
0.000000
0.000000
0.000000
0.000000
0.004590
0.004590
0.003075
0.001267
-0.000451
-0.002101
-0.003342
-0.002701
-0.002701
0.000000
0.000000
0.000000
0.000000
0.000000
0.000000
0.000000
0.000000
0.000000
0.000000
0.000000
0.000000
0.000000
0.005256
0.005256
0.003745
0.001476
-0.000398
-0.002122
-0.003609
-0.003819
-0.003819
0.000000
0.000000
0.000000
0.000000
0.000000
0.000000
0.000000
0.000000
0.000000
0.000000
0.000000
0.000000
0.000000
0.006129
0.006129
0.004582
0.001809
-0.000304
-0.002125
-0.003879
-0.005036
-0.005036
0.000000
0.000000
0.000000
0.000000
0.000000
0.000000
0.000000
0.000000
0.000000
0.000000
0.000000
0.000000
0.000000
0.000000
0.006129
0.004582
0.001809
-0.000304
-0.002125
-0.003879
-0.005036
0.000000
0.000000
0.000000
0.000000
0.000000
0.000000
0.000000
0.000000
0.000000
0.000000
0.000000
0.000000
0.000000
0.000000
0.000000
0.000000
0.000000
0.000000
0.000000
0.000000
0.000000
0.000000
0.000000
0.000000
0.000000
0.000000
0.000000
0.000000
0.000000
0.000000
0.000000
0.000000
0.000000
0.000000
0.000000
0.000000
0.000000
0.000000
0.000000
0.000000
0.000000
0.000000
0.000000
0.000000
0.000000
0.000000
0.000000
0.000000
0.000000
0.000000
0.000000
0.000000
0.000000
0.000000
0.000000
0.000000
0.000000
0.000000
0.000000
0.000000
0.000000
0.000000
0.000000
0.000000
0.000000
0.000000
0.000000
0.000000
0.000000
0.000000
0.000000
0.000000
0.000000
0.000000
0.000000
