# vtk DataFile Version 2.0
generated by CFD-lab course output (written by Tobias Neckel) 
ASCII

DATASET STRUCTURED_GRID
DIMENSIONS  23 13 1 
POINTS 299 float

0.000000 0.000000 0
0.454545 0.000000 0
0.909091 0.000000 0
1.363636 0.000000 0
1.818182 0.000000 0
2.272727 0.000000 0
2.727273 0.000000 0
3.181818 0.000000 0
3.636364 0.000000 0
4.090909 0.000000 0
4.545455 0.000000 0
5.000000 0.000000 0
5.454545 0.000000 0
5.909091 0.000000 0
6.363636 0.000000 0
6.818182 0.000000 0
7.272727 0.000000 0
7.727273 0.000000 0
8.181818 0.000000 0
8.636364 0.000000 0
9.090909 0.000000 0
9.545455 0.000000 0
10.000000 0.000000 0
0.000000 0.166667 0
0.454545 0.166667 0
0.909091 0.166667 0
1.363636 0.166667 0
1.818182 0.166667 0
2.272727 0.166667 0
2.727273 0.166667 0
3.181818 0.166667 0
3.636364 0.166667 0
4.090909 0.166667 0
4.545455 0.166667 0
5.000000 0.166667 0
5.454545 0.166667 0
5.909091 0.166667 0
6.363636 0.166667 0
6.818182 0.166667 0
7.272727 0.166667 0
7.727273 0.166667 0
8.181818 0.166667 0
8.636364 0.166667 0
9.090909 0.166667 0
9.545455 0.166667 0
10.000000 0.166667 0
0.000000 0.333333 0
0.454545 0.333333 0
0.909091 0.333333 0
1.363636 0.333333 0
1.818182 0.333333 0
2.272727 0.333333 0
2.727273 0.333333 0
3.181818 0.333333 0
3.636364 0.333333 0
4.090909 0.333333 0
4.545455 0.333333 0
5.000000 0.333333 0
5.454545 0.333333 0
5.909091 0.333333 0
6.363636 0.333333 0
6.818182 0.333333 0
7.272727 0.333333 0
7.727273 0.333333 0
8.181818 0.333333 0
8.636364 0.333333 0
9.090909 0.333333 0
9.545455 0.333333 0
10.000000 0.333333 0
0.000000 0.500000 0
0.454545 0.500000 0
0.909091 0.500000 0
1.363636 0.500000 0
1.818182 0.500000 0
2.272727 0.500000 0
2.727273 0.500000 0
3.181818 0.500000 0
3.636364 0.500000 0
4.090909 0.500000 0
4.545455 0.500000 0
5.000000 0.500000 0
5.454545 0.500000 0
5.909091 0.500000 0
6.363636 0.500000 0
6.818182 0.500000 0
7.272727 0.500000 0
7.727273 0.500000 0
8.181818 0.500000 0
8.636364 0.500000 0
9.090909 0.500000 0
9.545455 0.500000 0
10.000000 0.500000 0
0.000000 0.666667 0
0.454545 0.666667 0
0.909091 0.666667 0
1.363636 0.666667 0
1.818182 0.666667 0
2.272727 0.666667 0
2.727273 0.666667 0
3.181818 0.666667 0
3.636364 0.666667 0
4.090909 0.666667 0
4.545455 0.666667 0
5.000000 0.666667 0
5.454545 0.666667 0
5.909091 0.666667 0
6.363636 0.666667 0
6.818182 0.666667 0
7.272727 0.666667 0
7.727273 0.666667 0
8.181818 0.666667 0
8.636364 0.666667 0
9.090909 0.666667 0
9.545455 0.666667 0
10.000000 0.666667 0
0.000000 0.833333 0
0.454545 0.833333 0
0.909091 0.833333 0
1.363636 0.833333 0
1.818182 0.833333 0
2.272727 0.833333 0
2.727273 0.833333 0
3.181818 0.833333 0
3.636364 0.833333 0
4.090909 0.833333 0
4.545455 0.833333 0
5.000000 0.833333 0
5.454545 0.833333 0
5.909091 0.833333 0
6.363636 0.833333 0
6.818182 0.833333 0
7.272727 0.833333 0
7.727273 0.833333 0
8.181818 0.833333 0
8.636364 0.833333 0
9.090909 0.833333 0
9.545455 0.833333 0
10.000000 0.833333 0
0.000000 1.000000 0
0.454545 1.000000 0
0.909091 1.000000 0
1.363636 1.000000 0
1.818182 1.000000 0
2.272727 1.000000 0
2.727273 1.000000 0
3.181818 1.000000 0
3.636364 1.000000 0
4.090909 1.000000 0
4.545455 1.000000 0
5.000000 1.000000 0
5.454545 1.000000 0
5.909091 1.000000 0
6.363636 1.000000 0
6.818182 1.000000 0
7.272727 1.000000 0
7.727273 1.000000 0
8.181818 1.000000 0
8.636364 1.000000 0
9.090909 1.000000 0
9.545455 1.000000 0
10.000000 1.000000 0
0.000000 1.166667 0
0.454545 1.166667 0
0.909091 1.166667 0
1.363636 1.166667 0
1.818182 1.166667 0
2.272727 1.166667 0
2.727273 1.166667 0
3.181818 1.166667 0
3.636364 1.166667 0
4.090909 1.166667 0
4.545455 1.166667 0
5.000000 1.166667 0
5.454545 1.166667 0
5.909091 1.166667 0
6.363636 1.166667 0
6.818182 1.166667 0
7.272727 1.166667 0
7.727273 1.166667 0
8.181818 1.166667 0
8.636364 1.166667 0
9.090909 1.166667 0
9.545455 1.166667 0
10.000000 1.166667 0
0.000000 1.333333 0
0.454545 1.333333 0
0.909091 1.333333 0
1.363636 1.333333 0
1.818182 1.333333 0
2.272727 1.333333 0
2.727273 1.333333 0
3.181818 1.333333 0
3.636364 1.333333 0
4.090909 1.333333 0
4.545455 1.333333 0
5.000000 1.333333 0
5.454545 1.333333 0
5.909091 1.333333 0
6.363636 1.333333 0
6.818182 1.333333 0
7.272727 1.333333 0
7.727273 1.333333 0
8.181818 1.333333 0
8.636364 1.333333 0
9.090909 1.333333 0
9.545455 1.333333 0
10.000000 1.333333 0
0.000000 1.500000 0
0.454545 1.500000 0
0.909091 1.500000 0
1.363636 1.500000 0
1.818182 1.500000 0
2.272727 1.500000 0
2.727273 1.500000 0
3.181818 1.500000 0
3.636364 1.500000 0
4.090909 1.500000 0
4.545455 1.500000 0
5.000000 1.500000 0
5.454545 1.500000 0
5.909091 1.500000 0
6.363636 1.500000 0
6.818182 1.500000 0
7.272727 1.500000 0
7.727273 1.500000 0
8.181818 1.500000 0
8.636364 1.500000 0
9.090909 1.500000 0
9.545455 1.500000 0
10.000000 1.500000 0
0.000000 1.666667 0
0.454545 1.666667 0
0.909091 1.666667 0
1.363636 1.666667 0
1.818182 1.666667 0
2.272727 1.666667 0
2.727273 1.666667 0
3.181818 1.666667 0
3.636364 1.666667 0
4.090909 1.666667 0
4.545455 1.666667 0
5.000000 1.666667 0
5.454545 1.666667 0
5.909091 1.666667 0
6.363636 1.666667 0
6.818182 1.666667 0
7.272727 1.666667 0
7.727273 1.666667 0
8.181818 1.666667 0
8.636364 1.666667 0
9.090909 1.666667 0
9.545455 1.666667 0
10.000000 1.666667 0
0.000000 1.833333 0
0.454545 1.833333 0
0.909091 1.833333 0
1.363636 1.833333 0
1.818182 1.833333 0
2.272727 1.833333 0
2.727273 1.833333 0
3.181818 1.833333 0
3.636364 1.833333 0
4.090909 1.833333 0
4.545455 1.833333 0
5.000000 1.833333 0
5.454545 1.833333 0
5.909091 1.833333 0
6.363636 1.833333 0
6.818182 1.833333 0
7.272727 1.833333 0
7.727273 1.833333 0
8.181818 1.833333 0
8.636364 1.833333 0
9.090909 1.833333 0
9.545455 1.833333 0
10.000000 1.833333 0
0.000000 2.000000 0
0.454545 2.000000 0
0.909091 2.000000 0
1.363636 2.000000 0
1.818182 2.000000 0
2.272727 2.000000 0
2.727273 2.000000 0
3.181818 2.000000 0
3.636364 2.000000 0
4.090909 2.000000 0
4.545455 2.000000 0
5.000000 2.000000 0
5.454545 2.000000 0
5.909091 2.000000 0
6.363636 2.000000 0
6.818182 2.000000 0
7.272727 2.000000 0
7.727273 2.000000 0
8.181818 2.000000 0
8.636364 2.000000 0
9.090909 2.000000 0
9.545455 2.000000 0
10.000000 2.000000 0
POINT_DATA 299 

VECTORS velocity float
0.000000 0.000000 0
0.000000 0.000000 0
0.000000 0.000000 0
0.000000 0.000000 0
0.000000 0.000000 0
0.000000 0.000000 0
0.000000 0.000000 0
0.000000 0.000000 0
0.000000 0.000000 0
0.000000 0.000000 0
0.000000 0.000000 0
0.000000 0.000000 0
0.000000 0.000000 0
0.000000 0.000000 0
0.000000 0.000000 0
0.000000 0.000000 0
0.000000 0.000000 0
0.000000 0.000000 0
0.000000 0.000000 0
0.000000 0.000000 0
0.000000 0.000000 0
0.000000 0.000000 0
0.000000 0.000000 0
0.000000 0.000000 0
0.000000 0.000000 0
0.000000 0.000000 0
0.000000 0.000000 0
0.000000 0.000000 0
0.000000 0.000000 0
0.000000 0.000000 0
0.000000 0.000000 0
0.000000 0.000000 0
0.000000 0.000000 0
0.000000 0.000000 0
0.000000 0.000000 0
0.000000 0.000000 0
0.000000 0.000000 0
0.000000 0.000000 0
0.000000 0.000000 0
0.000000 0.000000 0
0.000000 0.000000 0
0.000000 0.000000 0
0.000000 0.000000 0
0.000000 0.000000 0
0.000000 0.000000 0
0.000000 0.000000 0
0.000000 0.000000 0
0.000000 0.000000 0
0.000000 0.000000 0
0.000000 0.000000 0
0.000000 0.000000 0
0.000000 0.000000 0
0.000000 0.000000 0
0.000000 0.000000 0
0.000000 0.000000 0
0.000000 0.000000 0
0.000000 0.000000 0
0.000000 0.000000 0
0.000000 0.000000 0
0.000000 0.000000 0
0.000000 0.000000 0
0.000000 0.000000 0
0.000000 0.000000 0
0.000000 0.000000 0
0.000000 0.000000 0
0.000000 0.000000 0
0.000000 0.000000 0
0.000000 0.000000 0
0.000000 0.000000 0
0.000000 0.000000 0
0.000000 0.000000 0
0.000000 0.000000 0
0.000000 0.000000 0
0.000000 0.000000 0
0.000000 0.000000 0
0.000000 0.000000 0
0.001250 0.000000 0
0.002813 0.000000 0
0.003255 0.000000 0
0.003401 0.000000 0
0.003637 0.000000 0
0.003472 0.000000 0
0.000000 0.000000 0
0.000000 0.000000 0
0.000000 0.000000 0
0.000000 0.000000 0
0.000000 0.000000 0
0.000000 0.000000 0
0.000000 0.000000 0
0.000000 0.000000 0
0.000000 0.000000 0
0.000000 0.000000 0
0.000000 0.000000 0
0.000000 0.000000 0
0.000000 0.000000 0
0.000000 0.000000 0
0.000000 0.000000 0
0.000000 0.000000 0
0.000000 0.000000 0
0.000204 0.000000 0
0.000450 0.000000 0
0.000521 0.000000 0
0.000545 0.000000 0
0.000582 0.000000 0
0.000574 0.000000 0
0.000000 0.000000 0
0.000000 0.000000 0
0.000000 0.000000 0
0.000000 0.000000 0
0.000000 0.000000 0
0.000000 0.000000 0
0.000000 0.000000 0
0.000000 0.000000 0
0.000000 0.000000 0
0.000000 0.000000 0
0.000000 0.000000 0
0.000000 0.000000 0
0.000000 0.000000 0
0.000000 0.000000 0
0.000000 0.000000 0
0.000000 -0.000506 0
0.000000 -0.000078 0
-0.002307 0.000938 0
-0.004958 0.000657 0
-0.005775 0.000184 0
-0.006031 0.000089 0
-0.006269 -0.000033 0
-0.005520 -0.001172 0
0.000000 0.000208 0
0.000000 0.001295 0
0.000000 0.000000 0
0.000000 0.000000 0
0.000000 0.000000 0
0.000000 0.000000 0
0.000000 0.000000 0
0.000000 0.000000 0
0.000000 0.000000 0
0.000000 0.000000 0
0.500000 0.000000 0
0.000000 0.000000 0
0.000000 0.000000 0
0.000000 0.000000 0
0.000000 0.000000 0
0.000000 -0.001095 0
0.000000 -0.000180 0
-0.000155 0.001934 0
-0.000233 0.001337 0
-0.000236 0.000405 0
-0.000247 0.000149 0
-0.000205 -0.000250 0
0.000000 -0.002391 0
0.000000 0.000403 0
0.000000 0.002482 0
0.000000 0.000000 0
0.000000 0.000000 0
0.000000 0.000000 0
0.000000 0.000000 0
0.000000 0.000000 0
0.000000 0.000000 0
0.000000 0.000000 0
0.000000 0.000000 0
1.000000 0.000000 0
0.000000 0.000000 0
0.000000 0.000000 0
0.000000 0.000000 0
0.000000 0.000000 0
0.000000 -0.000644 0
0.000000 -0.000117 0
0.002584 0.001089 0
0.005389 0.000719 0
0.006261 0.000196 0
0.006486 0.000066 0
0.006624 -0.000154 0
0.005721 -0.001308 0
0.000000 0.000232 0
0.000000 0.001359 0
0.000000 0.000000 0
0.000000 0.000000 0
0.000000 0.000000 0
0.000000 0.000000 0
0.000000 0.000000 0
0.000000 0.000000 0
0.000000 0.000000 0
0.000000 0.000000 0
1.000000 0.000000 0
0.000000 0.000000 0
0.000000 0.000000 0
0.000000 0.000000 0
0.000000 0.000000 0
0.000000 0.000000 0
0.000000 0.000000 0
-0.000322 0.000000 0
-0.000628 0.000000 0
-0.000717 0.000000 0
-0.000740 0.000000 0
-0.000743 0.000000 0
-0.000635 0.000000 0
0.000000 0.000000 0
0.000000 0.000000 0
0.000000 0.000000 0
0.000000 0.000000 0
0.000000 0.000000 0
0.000000 0.000000 0
0.000000 0.000000 0
0.000000 0.000000 0
0.000000 0.000000 0
0.000000 0.000000 0
1.000000 0.000000 0
0.000000 0.000000 0
0.000000 0.000000 0
0.000000 0.000000 0
0.000000 0.000000 0
0.000000 0.000000 0
0.000000 0.000000 0
-0.001800 0.000000 0
-0.003655 0.000000 0
-0.004174 0.000000 0
-0.004297 0.000000 0
-0.004358 0.000000 0
-0.003734 0.000000 0
0.000000 0.000000 0
0.000000 0.000000 0
0.000000 0.000000 0
0.000000 0.000000 0
0.000000 0.000000 0
0.000000 0.000000 0
0.000000 0.000000 0
0.000000 0.000000 0
0.000000 0.000000 0
0.000000 0.000000 0
1.000000 0.000000 0
0.000000 0.000000 0
0.000000 0.000000 0
0.000000 0.000000 0
0.000000 0.000000 0
0.000000 0.000000 0
0.000000 0.000000 0
0.000000 0.000000 0
0.000000 0.000000 0
0.000000 0.000000 0
0.000000 0.000000 0
0.000000 0.000000 0
0.000000 0.000000 0
0.000000 0.000000 0
0.000000 0.000000 0
0.000000 0.000000 0
0.000000 0.000000 0
0.000000 0.000000 0
0.000000 0.000000 0
0.000000 0.000000 0
0.000000 0.000000 0
0.000000 0.000000 0
0.000000 0.000000 0
1.000000 0.000000 0
0.000000 0.000000 0
0.000000 0.000000 0
0.000000 0.000000 0
0.000000 0.000000 0
0.000000 0.000000 0
0.000000 0.000000 0
0.000000 0.000000 0
0.000000 0.000000 0
0.000000 0.000000 0
0.000000 0.000000 0
0.000000 0.000000 0
0.000000 0.000000 0
0.000000 0.000000 0
0.000000 0.000000 0
0.000000 0.000000 0
0.000000 0.000000 0
0.000000 0.000000 0
0.000000 0.000000 0
0.000000 0.000000 0
0.000000 0.000000 0
0.000000 0.000000 0
0.000000 0.000000 0
0.500000 0.000000 0
0.000000 0.000000 0
0.000000 0.000000 0
0.000000 0.000000 0
0.000000 0.000000 0
0.000000 0.000000 0
0.000000 0.000000 0
0.000000 0.000000 0
0.000000 0.000000 0
0.000000 0.000000 0
0.000000 0.000000 0
0.000000 0.000000 0
0.000000 0.000000 0
0.000000 0.000000 0
0.000000 0.000000 0
0.000000 0.000000 0
0.000000 0.000000 0
0.000000 0.000000 0
0.000000 0.000000 0
0.000000 0.000000 0
0.000000 0.000000 0
0.000000 0.000000 0
0.000000 0.000000 0

CELL_DATA 264 
SCALARS pressure float 1 
LOOKUP_TABLE default 
0.000000
0.000000
0.000000
0.000000
0.000000
0.000000
0.000000
0.000000
0.000000
0.000000
0.000000
0.000000
0.000000
0.000000
0.000000
0.000000
0.000000
0.000000
0.000000
0.000000
0.000000
0.000000
0.000000
0.000000
0.000000
0.000000
0.000000
0.000000
0.000000
0.000000
0.000000
0.000000
0.000000
0.000000
0.000000
0.000000
0.000000
0.000000
0.000000
0.000000
0.000000
0.000000
0.000000
0.000000
0.000000
0.000000
0.000000
0.000000
0.000000
0.000000
0.000000
0.000000
0.000000
0.000000
0.000000
0.000000
0.000000
0.000000
0.000000
0.000000
0.000000
0.000000
0.000000
0.000000
0.000000
0.000000
0.000000
0.000000
0.000000
0.000000
0.000000
0.000000
0.000169
0.000054
0.000034
-0.000047
-0.000151
-0.000156
0.000101
0.000000
0.000000
0.000000
0.000000
0.000000
0.000000
0.000000
0.000000
0.000000
0.000000
0.000000
0.000000
0.000000
0.000000
0.000169
0.000169
0.000054
0.000034
-0.000047
-0.000151
-0.000156
0.000101
0.000101
0.000000
0.000000
0.000000
0.000000
0.000000
0.000000
0.000000
0.000000
0.000000
0.000000
0.000000
0.000000
0.000000
0.000278
0.000278
0.000175
0.000080
-0.000031
-0.000145
-0.000211
-0.000139
-0.000139
0.000000
0.000000
0.000000
0.000000
0.000000
0.000000
0.000000
0.000000
0.000000
0.000000
0.000000
0.000000
0.000000
0.000382
0.000382
0.000301
0.000130
-0.000015
-0.000145
-0.000269
-0.000332
-0.000332
0.000000
0.000000
0.000000
0.000000
0.000000
0.000000
0.000000
0.000000
0.000000
0.000000
0.000000
0.000000
0.000000
0.000512
0.000512
0.000442
0.000186
0.000001
-0.000144
-0.000330
-0.000572
-0.000572
0.000000
0.000000
0.000000
0.000000
0.000000
0.000000
0.000000
0.000000
0.000000
0.000000
0.000000
0.000000
0.000000
0.000000
0.000512
0.000442
0.000186
0.000001
-0.000144
-0.000330
-0.000572
0.000000
0.000000
0.000000
0.000000
0.000000
0.000000
0.000000
0.000000
0.000000
0.000000
0.000000
0.000000
0.000000
0.000000
0.000000
0.000000
0.000000
0.000000
0.000000
0.000000
0.000000
0.000000
0.000000
0.000000
0.000000
0.000000
0.000000
0.000000
0.000000
0.000000
0.000000
0.000000
0.000000
0.000000
0.000000
0.000000
0.000000
0.000000
0.000000
0.000000
0.000000
0.000000
0.000000
0.000000
0.000000
0.000000
0.000000
0.000000
0.000000
0.000000
0.000000
0.000000
0.000000
0.000000
0.000000
0.000000
0.000000
0.000000
0.000000
0.000000
0.000000
0.000000
0.000000
0.000000
0.000000
0.000000
0.000000
0.000000
0.000000
0.000000
0.000000
0.000000
0.000000
0.000000
0.000000
