# vtk DataFile Version 2.0
generated by CFD-lab course output (written by Tobias Neckel) 
ASCII

DATASET STRUCTURED_GRID
DIMENSIONS  23 13 1 
POINTS 299 float

0.000000 0.000000 0
0.454545 0.000000 0
0.909091 0.000000 0
1.363636 0.000000 0
1.818182 0.000000 0
2.272727 0.000000 0
2.727273 0.000000 0
3.181818 0.000000 0
3.636364 0.000000 0
4.090909 0.000000 0
4.545455 0.000000 0
5.000000 0.000000 0
5.454545 0.000000 0
5.909091 0.000000 0
6.363636 0.000000 0
6.818182 0.000000 0
7.272727 0.000000 0
7.727273 0.000000 0
8.181818 0.000000 0
8.636364 0.000000 0
9.090909 0.000000 0
9.545455 0.000000 0
10.000000 0.000000 0
0.000000 0.166667 0
0.454545 0.166667 0
0.909091 0.166667 0
1.363636 0.166667 0
1.818182 0.166667 0
2.272727 0.166667 0
2.727273 0.166667 0
3.181818 0.166667 0
3.636364 0.166667 0
4.090909 0.166667 0
4.545455 0.166667 0
5.000000 0.166667 0
5.454545 0.166667 0
5.909091 0.166667 0
6.363636 0.166667 0
6.818182 0.166667 0
7.272727 0.166667 0
7.727273 0.166667 0
8.181818 0.166667 0
8.636364 0.166667 0
9.090909 0.166667 0
9.545455 0.166667 0
10.000000 0.166667 0
0.000000 0.333333 0
0.454545 0.333333 0
0.909091 0.333333 0
1.363636 0.333333 0
1.818182 0.333333 0
2.272727 0.333333 0
2.727273 0.333333 0
3.181818 0.333333 0
3.636364 0.333333 0
4.090909 0.333333 0
4.545455 0.333333 0
5.000000 0.333333 0
5.454545 0.333333 0
5.909091 0.333333 0
6.363636 0.333333 0
6.818182 0.333333 0
7.272727 0.333333 0
7.727273 0.333333 0
8.181818 0.333333 0
8.636364 0.333333 0
9.090909 0.333333 0
9.545455 0.333333 0
10.000000 0.333333 0
0.000000 0.500000 0
0.454545 0.500000 0
0.909091 0.500000 0
1.363636 0.500000 0
1.818182 0.500000 0
2.272727 0.500000 0
2.727273 0.500000 0
3.181818 0.500000 0
3.636364 0.500000 0
4.090909 0.500000 0
4.545455 0.500000 0
5.000000 0.500000 0
5.454545 0.500000 0
5.909091 0.500000 0
6.363636 0.500000 0
6.818182 0.500000 0
7.272727 0.500000 0
7.727273 0.500000 0
8.181818 0.500000 0
8.636364 0.500000 0
9.090909 0.500000 0
9.545455 0.500000 0
10.000000 0.500000 0
0.000000 0.666667 0
0.454545 0.666667 0
0.909091 0.666667 0
1.363636 0.666667 0
1.818182 0.666667 0
2.272727 0.666667 0
2.727273 0.666667 0
3.181818 0.666667 0
3.636364 0.666667 0
4.090909 0.666667 0
4.545455 0.666667 0
5.000000 0.666667 0
5.454545 0.666667 0
5.909091 0.666667 0
6.363636 0.666667 0
6.818182 0.666667 0
7.272727 0.666667 0
7.727273 0.666667 0
8.181818 0.666667 0
8.636364 0.666667 0
9.090909 0.666667 0
9.545455 0.666667 0
10.000000 0.666667 0
0.000000 0.833333 0
0.454545 0.833333 0
0.909091 0.833333 0
1.363636 0.833333 0
1.818182 0.833333 0
2.272727 0.833333 0
2.727273 0.833333 0
3.181818 0.833333 0
3.636364 0.833333 0
4.090909 0.833333 0
4.545455 0.833333 0
5.000000 0.833333 0
5.454545 0.833333 0
5.909091 0.833333 0
6.363636 0.833333 0
6.818182 0.833333 0
7.272727 0.833333 0
7.727273 0.833333 0
8.181818 0.833333 0
8.636364 0.833333 0
9.090909 0.833333 0
9.545455 0.833333 0
10.000000 0.833333 0
0.000000 1.000000 0
0.454545 1.000000 0
0.909091 1.000000 0
1.363636 1.000000 0
1.818182 1.000000 0
2.272727 1.000000 0
2.727273 1.000000 0
3.181818 1.000000 0
3.636364 1.000000 0
4.090909 1.000000 0
4.545455 1.000000 0
5.000000 1.000000 0
5.454545 1.000000 0
5.909091 1.000000 0
6.363636 1.000000 0
6.818182 1.000000 0
7.272727 1.000000 0
7.727273 1.000000 0
8.181818 1.000000 0
8.636364 1.000000 0
9.090909 1.000000 0
9.545455 1.000000 0
10.000000 1.000000 0
0.000000 1.166667 0
0.454545 1.166667 0
0.909091 1.166667 0
1.363636 1.166667 0
1.818182 1.166667 0
2.272727 1.166667 0
2.727273 1.166667 0
3.181818 1.166667 0
3.636364 1.166667 0
4.090909 1.166667 0
4.545455 1.166667 0
5.000000 1.166667 0
5.454545 1.166667 0
5.909091 1.166667 0
6.363636 1.166667 0
6.818182 1.166667 0
7.272727 1.166667 0
7.727273 1.166667 0
8.181818 1.166667 0
8.636364 1.166667 0
9.090909 1.166667 0
9.545455 1.166667 0
10.000000 1.166667 0
0.000000 1.333333 0
0.454545 1.333333 0
0.909091 1.333333 0
1.363636 1.333333 0
1.818182 1.333333 0
2.272727 1.333333 0
2.727273 1.333333 0
3.181818 1.333333 0
3.636364 1.333333 0
4.090909 1.333333 0
4.545455 1.333333 0
5.000000 1.333333 0
5.454545 1.333333 0
5.909091 1.333333 0
6.363636 1.333333 0
6.818182 1.333333 0
7.272727 1.333333 0
7.727273 1.333333 0
8.181818 1.333333 0
8.636364 1.333333 0
9.090909 1.333333 0
9.545455 1.333333 0
10.000000 1.333333 0
0.000000 1.500000 0
0.454545 1.500000 0
0.909091 1.500000 0
1.363636 1.500000 0
1.818182 1.500000 0
2.272727 1.500000 0
2.727273 1.500000 0
3.181818 1.500000 0
3.636364 1.500000 0
4.090909 1.500000 0
4.545455 1.500000 0
5.000000 1.500000 0
5.454545 1.500000 0
5.909091 1.500000 0
6.363636 1.500000 0
6.818182 1.500000 0
7.272727 1.500000 0
7.727273 1.500000 0
8.181818 1.500000 0
8.636364 1.500000 0
9.090909 1.500000 0
9.545455 1.500000 0
10.000000 1.500000 0
0.000000 1.666667 0
0.454545 1.666667 0
0.909091 1.666667 0
1.363636 1.666667 0
1.818182 1.666667 0
2.272727 1.666667 0
2.727273 1.666667 0
3.181818 1.666667 0
3.636364 1.666667 0
4.090909 1.666667 0
4.545455 1.666667 0
5.000000 1.666667 0
5.454545 1.666667 0
5.909091 1.666667 0
6.363636 1.666667 0
6.818182 1.666667 0
7.272727 1.666667 0
7.727273 1.666667 0
8.181818 1.666667 0
8.636364 1.666667 0
9.090909 1.666667 0
9.545455 1.666667 0
10.000000 1.666667 0
0.000000 1.833333 0
0.454545 1.833333 0
0.909091 1.833333 0
1.363636 1.833333 0
1.818182 1.833333 0
2.272727 1.833333 0
2.727273 1.833333 0
3.181818 1.833333 0
3.636364 1.833333 0
4.090909 1.833333 0
4.545455 1.833333 0
5.000000 1.833333 0
5.454545 1.833333 0
5.909091 1.833333 0
6.363636 1.833333 0
6.818182 1.833333 0
7.272727 1.833333 0
7.727273 1.833333 0
8.181818 1.833333 0
8.636364 1.833333 0
9.090909 1.833333 0
9.545455 1.833333 0
10.000000 1.833333 0
0.000000 2.000000 0
0.454545 2.000000 0
0.909091 2.000000 0
1.363636 2.000000 0
1.818182 2.000000 0
2.272727 2.000000 0
2.727273 2.000000 0
3.181818 2.000000 0
3.636364 2.000000 0
4.090909 2.000000 0
4.545455 2.000000 0
5.000000 2.000000 0
5.454545 2.000000 0
5.909091 2.000000 0
6.363636 2.000000 0
6.818182 2.000000 0
7.272727 2.000000 0
7.727273 2.000000 0
8.181818 2.000000 0
8.636364 2.000000 0
9.090909 2.000000 0
9.545455 2.000000 0
10.000000 2.000000 0
POINT_DATA 299 

VECTORS velocity float
0.000000 0.000000 0
0.000000 0.000000 0
0.000000 0.000000 0
0.000000 0.000000 0
0.000000 0.000000 0
0.000000 0.000000 0
0.000000 0.000000 0
0.000000 0.000000 0
0.000000 0.000000 0
0.000000 0.000000 0
0.000000 0.000000 0
0.000000 0.000000 0
0.000000 0.000000 0
0.000000 0.000000 0
0.000000 0.000000 0
0.000000 0.000000 0
0.000000 0.000000 0
0.000000 0.000000 0
0.000000 0.000000 0
0.000000 0.000000 0
0.000000 0.000000 0
0.000000 0.000000 0
0.000000 0.000000 0
0.000000 0.000000 0
0.000000 0.000000 0
0.000000 0.000000 0
0.000000 0.000000 0
0.000000 0.000000 0
0.000000 0.000000 0
0.000000 0.000000 0
0.000000 0.000000 0
0.000000 0.000000 0
0.000000 0.000000 0
0.000000 0.000000 0
0.000000 0.000000 0
0.000000 0.000000 0
0.000000 0.000000 0
0.000000 0.000000 0
0.000000 0.000000 0
0.000000 0.000000 0
0.000000 0.000000 0
0.000000 0.000000 0
0.000000 0.000000 0
0.000000 0.000000 0
0.000000 0.000000 0
0.000000 0.000000 0
0.000000 0.000000 0
0.000000 0.000000 0
0.000000 0.000000 0
0.000000 0.000000 0
0.000000 0.000000 0
0.000000 0.000000 0
0.000000 0.000000 0
0.000000 0.000000 0
0.000000 0.000000 0
0.000000 0.000000 0
0.000000 0.000000 0
0.000000 0.000000 0
0.000000 0.000000 0
0.000000 0.000000 0
0.000000 0.000000 0
0.000000 0.000000 0
0.000000 0.000000 0
0.000000 0.000000 0
0.000000 0.000000 0
0.000000 0.000000 0
0.000000 0.000000 0
0.000000 0.000000 0
0.000000 0.000000 0
0.000000 0.000000 0
0.000000 0.000000 0
0.000000 0.000000 0
0.000000 0.000000 0
0.000000 0.000000 0
0.000000 0.000000 0
0.000000 0.000000 0
0.000068 0.000000 0
0.000151 0.000000 0
0.000172 0.000000 0
0.000175 0.000000 0
0.000181 0.000000 0
0.000154 0.000000 0
0.000000 0.000000 0
0.000000 0.000000 0
0.000000 0.000000 0
0.000000 0.000000 0
0.000000 0.000000 0
0.000000 0.000000 0
0.000000 0.000000 0
0.000000 0.000000 0
0.000000 0.000000 0
0.000000 0.000000 0
0.000000 0.000000 0
0.000000 0.000000 0
0.000000 0.000000 0
0.000000 0.000000 0
0.000000 0.000000 0
0.000000 0.000000 0
0.000000 0.000000 0
0.000009 0.000000 0
0.000021 0.000000 0
0.000024 0.000000 0
0.000025 0.000000 0
0.000027 0.000000 0
0.000024 0.000000 0
0.000000 0.000000 0
0.000000 0.000000 0
0.000000 0.000000 0
0.000000 0.000000 0
0.000000 0.000000 0
0.000000 0.000000 0
0.000000 0.000000 0
0.000000 0.000000 0
0.000000 0.000000 0
0.000000 0.000000 0
0.000000 0.000000 0
0.000000 0.000000 0
0.000000 0.000000 0
0.000000 0.000000 0
0.000000 0.000000 0
0.000000 -0.000012 0
0.000000 -0.000004 0
-0.000122 0.000025 0
-0.000260 0.000019 0
-0.000299 0.000003 0
-0.000303 0.000008 0
-0.000307 0.000007 0
-0.000251 -0.000036 0
0.000000 0.000009 0
0.000000 0.000045 0
0.000000 0.000000 0
0.000000 0.000000 0
0.000000 0.000000 0
0.000000 0.000000 0
0.000000 0.000000 0
0.000000 0.000000 0
0.000000 0.000000 0
0.000000 0.000000 0
0.500000 0.000000 0
0.000000 0.000000 0
0.000000 0.000000 0
0.000000 0.000000 0
0.000000 0.000000 0
0.000000 -0.000036 0
0.000000 -0.000007 0
-0.000031 0.000070 0
-0.000047 0.000051 0
-0.000054 0.000012 0
-0.000051 0.000010 0
-0.000038 -0.000003 0
-0.000018 -0.000091 0
0.000000 0.000017 0
0.000000 0.000097 0
0.000000 0.000000 0
0.000000 0.000000 0
0.000000 0.000000 0
0.000000 0.000000 0
0.000000 0.000000 0
0.000000 0.000000 0
0.000000 0.000000 0
0.000000 0.000000 0
1.000000 0.000000 0
0.000000 0.000000 0
0.000000 0.000000 0
0.000000 0.000000 0
0.000000 0.000000 0
0.000000 -0.000018 0
0.000000 -0.000003 0
0.000065 0.000037 0
0.000175 0.000027 0
0.000200 0.000006 0
0.000210 0.000005 0
0.000237 -0.000001 0
0.000215 -0.000047 0
0.000000 0.000008 0
0.000000 0.000051 0
0.000000 0.000000 0
0.000000 0.000000 0
0.000000 0.000000 0
0.000000 0.000000 0
0.000000 0.000000 0
0.000000 0.000000 0
0.000000 0.000000 0
0.000000 0.000000 0
1.000000 0.000000 0
0.000000 0.000000 0
0.000000 0.000000 0
0.000000 0.000000 0
0.000000 0.000000 0
0.000000 0.000000 0
0.000000 0.000000 0
-0.000009 0.000000 0
-0.000021 0.000000 0
-0.000024 0.000000 0
-0.000025 0.000000 0
-0.000026 0.000000 0
-0.000023 0.000000 0
0.000000 0.000000 0
0.000000 0.000000 0
0.000000 0.000000 0
0.000000 0.000000 0
0.000000 0.000000 0
0.000000 0.000000 0
0.000000 0.000000 0
0.000000 0.000000 0
0.000000 0.000000 0
0.000000 0.000000 0
1.000000 0.000000 0
0.000000 0.000000 0
0.000000 0.000000 0
0.000000 0.000000 0
0.000000 0.000000 0
0.000000 0.000000 0
0.000000 0.000000 0
-0.000043 0.000000 0
-0.000113 0.000000 0
-0.000128 0.000000 0
-0.000133 0.000000 0
-0.000148 0.000000 0
-0.000135 0.000000 0
0.000000 0.000000 0
0.000000 0.000000 0
0.000000 0.000000 0
0.000000 0.000000 0
0.000000 0.000000 0
0.000000 0.000000 0
0.000000 0.000000 0
0.000000 0.000000 0
0.000000 0.000000 0
0.000000 0.000000 0
1.000000 0.000000 0
0.000000 0.000000 0
0.000000 0.000000 0
0.000000 0.000000 0
0.000000 0.000000 0
0.000000 0.000000 0
0.000000 0.000000 0
0.000000 0.000000 0
0.000000 0.000000 0
0.000000 0.000000 0
0.000000 0.000000 0
0.000000 0.000000 0
0.000000 0.000000 0
0.000000 0.000000 0
0.000000 0.000000 0
0.000000 0.000000 0
0.000000 0.000000 0
0.000000 0.000000 0
0.000000 0.000000 0
0.000000 0.000000 0
0.000000 0.000000 0
0.000000 0.000000 0
0.000000 0.000000 0
1.000000 0.000000 0
0.000000 0.000000 0
0.000000 0.000000 0
0.000000 0.000000 0
0.000000 0.000000 0
0.000000 0.000000 0
0.000000 0.000000 0
0.000000 0.000000 0
0.000000 0.000000 0
0.000000 0.000000 0
0.000000 0.000000 0
0.000000 0.000000 0
0.000000 0.000000 0
0.000000 0.000000 0
0.000000 0.000000 0
0.000000 0.000000 0
0.000000 0.000000 0
0.000000 0.000000 0
0.000000 0.000000 0
0.000000 0.000000 0
0.000000 0.000000 0
0.000000 0.000000 0
0.000000 0.000000 0
0.500000 0.000000 0
0.000000 0.000000 0
0.000000 0.000000 0
0.000000 0.000000 0
0.000000 0.000000 0
0.000000 0.000000 0
0.000000 0.000000 0
0.000000 0.000000 0
0.000000 0.000000 0
0.000000 0.000000 0
0.000000 0.000000 0
0.000000 0.000000 0
0.000000 0.000000 0
0.000000 0.000000 0
0.000000 0.000000 0
0.000000 0.000000 0
0.000000 0.000000 0
0.000000 0.000000 0
0.000000 0.000000 0
0.000000 0.000000 0
0.000000 0.000000 0
0.000000 0.000000 0
0.000000 0.000000 0

CELL_DATA 264 
SCALARS pressure float 1 
LOOKUP_TABLE default 
0.000000
0.000000
0.000000
0.000000
0.000000
0.000000
0.000000
0.000000
0.000000
0.000000
0.000000
0.000000
0.000000
0.000000
0.000000
0.000000
0.000000
0.000000
0.000000
0.000000
0.000000
0.000000
0.000000
0.000000
0.000000
0.000000
0.000000
0.000000
0.000000
0.000000
0.000000
0.000000
0.000000
0.000000
0.000000
0.000000
0.000000
0.000000
0.000000
0.000000
0.000000
0.000000
0.000000
0.000000
0.000000
0.000000
0.000000
0.000000
0.000000
0.000000
0.000000
0.000000
0.000000
0.000000
0.000000
0.000000
0.000000
0.000000
0.000000
0.000000
0.000000
0.000000
0.000000
0.000000
0.000000
0.000000
0.000000
0.000000
0.000000
0.000000
0.000000
0.000000
-0.000043
-0.000036
-0.000018
-0.000000
0.000013
0.000028
0.000044
0.000000
0.000000
0.000000
0.000000
0.000000
0.000000
0.000000
0.000000
0.000000
0.000000
0.000000
0.000000
0.000000
0.000000
-0.000043
-0.000043
-0.000036
-0.000018
-0.000000
0.000013
0.000028
0.000044
0.000044
0.000000
0.000000
0.000000
0.000000
0.000000
0.000000
0.000000
0.000000
0.000000
0.000000
0.000000
0.000000
0.000000
-0.000036
-0.000036
-0.000028
-0.000015
-0.000000
0.000013
0.000024
0.000032
0.000032
0.000000
0.000000
0.000000
0.000000
0.000000
0.000000
0.000000
0.000000
0.000000
0.000000
0.000000
0.000000
0.000000
-0.000032
-0.000032
-0.000023
-0.000013
0.000000
0.000013
0.000021
0.000024
0.000024
0.000000
0.000000
0.000000
0.000000
0.000000
0.000000
0.000000
0.000000
0.000000
0.000000
0.000000
0.000000
0.000000
-0.000027
-0.000027
-0.000017
-0.000011
0.000001
0.000013
0.000019
0.000015
0.000015
0.000000
0.000000
0.000000
0.000000
0.000000
0.000000
0.000000
0.000000
0.000000
0.000000
0.000000
0.000000
0.000000
0.000000
-0.000027
-0.000017
-0.000011
0.000001
0.000013
0.000019
0.000015
0.000000
0.000000
0.000000
0.000000
0.000000
0.000000
0.000000
0.000000
0.000000
0.000000
0.000000
0.000000
0.000000
0.000000
0.000000
0.000000
0.000000
0.000000
0.000000
0.000000
0.000000
0.000000
0.000000
0.000000
0.000000
0.000000
0.000000
0.000000
0.000000
0.000000
0.000000
0.000000
0.000000
0.000000
0.000000
0.000000
0.000000
0.000000
0.000000
0.000000
0.000000
0.000000
0.000000
0.000000
0.000000
0.000000
0.000000
0.000000
0.000000
0.000000
0.000000
0.000000
0.000000
0.000000
0.000000
0.000000
0.000000
0.000000
0.000000
0.000000
0.000000
0.000000
0.000000
0.000000
0.000000
0.000000
0.000000
0.000000
0.000000
0.000000
0.000000
0.000000
0.000000
0.000000
0.000000
