# vtk DataFile Version 2.0
generated by CFD-lab course output (written by Tobias Neckel) 
ASCII

DATASET STRUCTURED_GRID
DIMENSIONS  23 13 1 
POINTS 299 float

0.000000 0.000000 0
0.454545 0.000000 0
0.909091 0.000000 0
1.363636 0.000000 0
1.818182 0.000000 0
2.272727 0.000000 0
2.727273 0.000000 0
3.181818 0.000000 0
3.636364 0.000000 0
4.090909 0.000000 0
4.545455 0.000000 0
5.000000 0.000000 0
5.454545 0.000000 0
5.909091 0.000000 0
6.363636 0.000000 0
6.818182 0.000000 0
7.272727 0.000000 0
7.727273 0.000000 0
8.181818 0.000000 0
8.636364 0.000000 0
9.090909 0.000000 0
9.545455 0.000000 0
10.000000 0.000000 0
0.000000 0.166667 0
0.454545 0.166667 0
0.909091 0.166667 0
1.363636 0.166667 0
1.818182 0.166667 0
2.272727 0.166667 0
2.727273 0.166667 0
3.181818 0.166667 0
3.636364 0.166667 0
4.090909 0.166667 0
4.545455 0.166667 0
5.000000 0.166667 0
5.454545 0.166667 0
5.909091 0.166667 0
6.363636 0.166667 0
6.818182 0.166667 0
7.272727 0.166667 0
7.727273 0.166667 0
8.181818 0.166667 0
8.636364 0.166667 0
9.090909 0.166667 0
9.545455 0.166667 0
10.000000 0.166667 0
0.000000 0.333333 0
0.454545 0.333333 0
0.909091 0.333333 0
1.363636 0.333333 0
1.818182 0.333333 0
2.272727 0.333333 0
2.727273 0.333333 0
3.181818 0.333333 0
3.636364 0.333333 0
4.090909 0.333333 0
4.545455 0.333333 0
5.000000 0.333333 0
5.454545 0.333333 0
5.909091 0.333333 0
6.363636 0.333333 0
6.818182 0.333333 0
7.272727 0.333333 0
7.727273 0.333333 0
8.181818 0.333333 0
8.636364 0.333333 0
9.090909 0.333333 0
9.545455 0.333333 0
10.000000 0.333333 0
0.000000 0.500000 0
0.454545 0.500000 0
0.909091 0.500000 0
1.363636 0.500000 0
1.818182 0.500000 0
2.272727 0.500000 0
2.727273 0.500000 0
3.181818 0.500000 0
3.636364 0.500000 0
4.090909 0.500000 0
4.545455 0.500000 0
5.000000 0.500000 0
5.454545 0.500000 0
5.909091 0.500000 0
6.363636 0.500000 0
6.818182 0.500000 0
7.272727 0.500000 0
7.727273 0.500000 0
8.181818 0.500000 0
8.636364 0.500000 0
9.090909 0.500000 0
9.545455 0.500000 0
10.000000 0.500000 0
0.000000 0.666667 0
0.454545 0.666667 0
0.909091 0.666667 0
1.363636 0.666667 0
1.818182 0.666667 0
2.272727 0.666667 0
2.727273 0.666667 0
3.181818 0.666667 0
3.636364 0.666667 0
4.090909 0.666667 0
4.545455 0.666667 0
5.000000 0.666667 0
5.454545 0.666667 0
5.909091 0.666667 0
6.363636 0.666667 0
6.818182 0.666667 0
7.272727 0.666667 0
7.727273 0.666667 0
8.181818 0.666667 0
8.636364 0.666667 0
9.090909 0.666667 0
9.545455 0.666667 0
10.000000 0.666667 0
0.000000 0.833333 0
0.454545 0.833333 0
0.909091 0.833333 0
1.363636 0.833333 0
1.818182 0.833333 0
2.272727 0.833333 0
2.727273 0.833333 0
3.181818 0.833333 0
3.636364 0.833333 0
4.090909 0.833333 0
4.545455 0.833333 0
5.000000 0.833333 0
5.454545 0.833333 0
5.909091 0.833333 0
6.363636 0.833333 0
6.818182 0.833333 0
7.272727 0.833333 0
7.727273 0.833333 0
8.181818 0.833333 0
8.636364 0.833333 0
9.090909 0.833333 0
9.545455 0.833333 0
10.000000 0.833333 0
0.000000 1.000000 0
0.454545 1.000000 0
0.909091 1.000000 0
1.363636 1.000000 0
1.818182 1.000000 0
2.272727 1.000000 0
2.727273 1.000000 0
3.181818 1.000000 0
3.636364 1.000000 0
4.090909 1.000000 0
4.545455 1.000000 0
5.000000 1.000000 0
5.454545 1.000000 0
5.909091 1.000000 0
6.363636 1.000000 0
6.818182 1.000000 0
7.272727 1.000000 0
7.727273 1.000000 0
8.181818 1.000000 0
8.636364 1.000000 0
9.090909 1.000000 0
9.545455 1.000000 0
10.000000 1.000000 0
0.000000 1.166667 0
0.454545 1.166667 0
0.909091 1.166667 0
1.363636 1.166667 0
1.818182 1.166667 0
2.272727 1.166667 0
2.727273 1.166667 0
3.181818 1.166667 0
3.636364 1.166667 0
4.090909 1.166667 0
4.545455 1.166667 0
5.000000 1.166667 0
5.454545 1.166667 0
5.909091 1.166667 0
6.363636 1.166667 0
6.818182 1.166667 0
7.272727 1.166667 0
7.727273 1.166667 0
8.181818 1.166667 0
8.636364 1.166667 0
9.090909 1.166667 0
9.545455 1.166667 0
10.000000 1.166667 0
0.000000 1.333333 0
0.454545 1.333333 0
0.909091 1.333333 0
1.363636 1.333333 0
1.818182 1.333333 0
2.272727 1.333333 0
2.727273 1.333333 0
3.181818 1.333333 0
3.636364 1.333333 0
4.090909 1.333333 0
4.545455 1.333333 0
5.000000 1.333333 0
5.454545 1.333333 0
5.909091 1.333333 0
6.363636 1.333333 0
6.818182 1.333333 0
7.272727 1.333333 0
7.727273 1.333333 0
8.181818 1.333333 0
8.636364 1.333333 0
9.090909 1.333333 0
9.545455 1.333333 0
10.000000 1.333333 0
0.000000 1.500000 0
0.454545 1.500000 0
0.909091 1.500000 0
1.363636 1.500000 0
1.818182 1.500000 0
2.272727 1.500000 0
2.727273 1.500000 0
3.181818 1.500000 0
3.636364 1.500000 0
4.090909 1.500000 0
4.545455 1.500000 0
5.000000 1.500000 0
5.454545 1.500000 0
5.909091 1.500000 0
6.363636 1.500000 0
6.818182 1.500000 0
7.272727 1.500000 0
7.727273 1.500000 0
8.181818 1.500000 0
8.636364 1.500000 0
9.090909 1.500000 0
9.545455 1.500000 0
10.000000 1.500000 0
0.000000 1.666667 0
0.454545 1.666667 0
0.909091 1.666667 0
1.363636 1.666667 0
1.818182 1.666667 0
2.272727 1.666667 0
2.727273 1.666667 0
3.181818 1.666667 0
3.636364 1.666667 0
4.090909 1.666667 0
4.545455 1.666667 0
5.000000 1.666667 0
5.454545 1.666667 0
5.909091 1.666667 0
6.363636 1.666667 0
6.818182 1.666667 0
7.272727 1.666667 0
7.727273 1.666667 0
8.181818 1.666667 0
8.636364 1.666667 0
9.090909 1.666667 0
9.545455 1.666667 0
10.000000 1.666667 0
0.000000 1.833333 0
0.454545 1.833333 0
0.909091 1.833333 0
1.363636 1.833333 0
1.818182 1.833333 0
2.272727 1.833333 0
2.727273 1.833333 0
3.181818 1.833333 0
3.636364 1.833333 0
4.090909 1.833333 0
4.545455 1.833333 0
5.000000 1.833333 0
5.454545 1.833333 0
5.909091 1.833333 0
6.363636 1.833333 0
6.818182 1.833333 0
7.272727 1.833333 0
7.727273 1.833333 0
8.181818 1.833333 0
8.636364 1.833333 0
9.090909 1.833333 0
9.545455 1.833333 0
10.000000 1.833333 0
0.000000 2.000000 0
0.454545 2.000000 0
0.909091 2.000000 0
1.363636 2.000000 0
1.818182 2.000000 0
2.272727 2.000000 0
2.727273 2.000000 0
3.181818 2.000000 0
3.636364 2.000000 0
4.090909 2.000000 0
4.545455 2.000000 0
5.000000 2.000000 0
5.454545 2.000000 0
5.909091 2.000000 0
6.363636 2.000000 0
6.818182 2.000000 0
7.272727 2.000000 0
7.727273 2.000000 0
8.181818 2.000000 0
8.636364 2.000000 0
9.090909 2.000000 0
9.545455 2.000000 0
10.000000 2.000000 0
POINT_DATA 299 

VECTORS velocity float
0.000000 0.000000 0
0.000000 0.000000 0
0.000000 0.000000 0
0.000000 0.000000 0
0.000000 0.000000 0
0.000000 0.000000 0
0.000000 0.000000 0
0.000000 0.000000 0
0.000000 0.000000 0
0.000000 0.000000 0
0.000000 0.000000 0
0.000000 0.000000 0
0.000000 0.000000 0
0.000000 0.000000 0
0.000000 0.000000 0
0.000000 0.000000 0
0.000000 0.000000 0
0.000000 0.000000 0
0.000000 0.000000 0
0.000000 0.000000 0
0.000000 0.000000 0
0.000000 0.000000 0
0.000000 0.000000 0
0.000000 0.000000 0
0.000000 0.000000 0
0.000000 0.000000 0
0.000000 0.000000 0
0.000000 0.000000 0
0.000000 0.000000 0
0.000000 0.000000 0
0.000000 0.000000 0
0.000000 0.000000 0
0.000000 0.000000 0
0.000000 0.000000 0
0.000000 0.000000 0
0.000000 0.000000 0
0.000000 0.000000 0
0.000000 0.000000 0
0.000000 0.000000 0
0.000000 0.000000 0
0.000000 0.000000 0
0.000000 0.000000 0
0.000000 0.000000 0
0.000000 0.000000 0
0.000000 0.000000 0
0.000000 0.000000 0
0.000000 0.000000 0
0.000000 0.000000 0
0.000000 0.000000 0
0.000000 0.000000 0
0.000000 0.000000 0
0.000000 0.000000 0
0.000000 0.000000 0
0.000000 0.000000 0
0.000000 0.000000 0
0.000000 0.000000 0
0.000000 0.000000 0
0.000000 0.000000 0
0.000000 0.000000 0
0.000000 0.000000 0
0.000000 0.000000 0
0.000000 0.000000 0
0.000000 0.000000 0
0.000000 0.000000 0
0.000000 0.000000 0
0.000000 0.000000 0
0.000000 0.000000 0
0.000000 0.000000 0
0.000000 0.000000 0
0.000000 0.000000 0
0.000000 0.000000 0
0.000000 0.000000 0
0.000000 0.000000 0
0.000000 0.000000 0
0.000000 0.000000 0
0.000000 0.000000 0
0.000254 0.000000 0
0.000593 0.000000 0
0.000683 0.000000 0
0.000707 0.000000 0
0.000758 0.000000 0
0.000695 0.000000 0
0.000000 0.000000 0
0.000000 0.000000 0
0.000000 0.000000 0
0.000000 0.000000 0
0.000000 0.000000 0
0.000000 0.000000 0
0.000000 0.000000 0
0.000000 0.000000 0
0.000000 0.000000 0
0.000000 0.000000 0
0.000000 0.000000 0
0.000000 0.000000 0
0.000000 0.000000 0
0.000000 0.000000 0
0.000000 0.000000 0
0.000000 0.000000 0
0.000000 0.000000 0
0.000039 0.000000 0
0.000089 0.000000 0
0.000104 0.000000 0
0.000110 0.000000 0
0.000116 0.000000 0
0.000111 0.000000 0
0.000000 0.000000 0
0.000000 0.000000 0
0.000000 0.000000 0
0.000000 0.000000 0
0.000000 0.000000 0
0.000000 0.000000 0
0.000000 0.000000 0
0.000000 0.000000 0
0.000000 0.000000 0
0.000000 0.000000 0
0.000000 0.000000 0
0.000000 0.000000 0
0.000000 0.000000 0
0.000000 0.000000 0
0.000000 0.000000 0
0.000000 -0.000113 0
0.000000 -0.000020 0
-0.000430 0.000209 0
-0.000981 0.000147 0
-0.001136 0.000039 0
-0.001181 0.000015 0
-0.001254 -0.000023 0
-0.001103 -0.000254 0
0.000000 0.000045 0
0.000000 0.000268 0
0.000000 0.000000 0
0.000000 0.000000 0
0.000000 0.000000 0
0.000000 0.000000 0
0.000000 0.000000 0
0.000000 0.000000 0
0.000000 0.000000 0
0.000000 0.000000 0
0.500000 0.000000 0
0.000000 0.000000 0
0.000000 0.000000 0
0.000000 0.000000 0
0.000000 0.000000 0
0.000000 -0.000214 0
0.000000 -0.000036 0
0.000047 0.000394 0
0.000076 0.000278 0
0.000093 0.000079 0
0.000090 0.000034 0
0.000075 -0.000051 0
0.000056 -0.000488 0
0.000000 0.000082 0
0.000000 0.000502 0
0.000000 0.000000 0
0.000000 0.000000 0
0.000000 0.000000 0
0.000000 0.000000 0
0.000000 0.000000 0
0.000000 0.000000 0
0.000000 0.000000 0
0.000000 0.000000 0
1.000000 0.000000 0
0.000000 0.000000 0
0.000000 0.000000 0
0.000000 0.000000 0
0.000000 0.000000 0
0.000000 -0.000110 0
0.000000 -0.000019 0
0.000523 0.000203 0
0.001128 0.000143 0
0.001307 0.000036 0
0.001347 0.000019 0
0.001387 -0.000020 0
0.001180 -0.000250 0
0.000000 0.000043 0
0.000000 0.000262 0
0.000000 0.000000 0
0.000000 0.000000 0
0.000000 0.000000 0
0.000000 0.000000 0
0.000000 0.000000 0
0.000000 0.000000 0
0.000000 0.000000 0
0.000000 0.000000 0
1.000000 0.000000 0
0.000000 0.000000 0
0.000000 0.000000 0
0.000000 0.000000 0
0.000000 0.000000 0
0.000000 0.000000 0
0.000000 0.000000 0
-0.000057 0.000000 0
-0.000119 0.000000 0
-0.000136 0.000000 0
-0.000140 0.000000 0
-0.000142 0.000000 0
-0.000121 0.000000 0
0.000000 0.000000 0
0.000000 0.000000 0
0.000000 0.000000 0
0.000000 0.000000 0
0.000000 0.000000 0
0.000000 0.000000 0
0.000000 0.000000 0
0.000000 0.000000 0
0.000000 0.000000 0
0.000000 0.000000 0
1.000000 0.000000 0
0.000000 0.000000 0
0.000000 0.000000 0
0.000000 0.000000 0
0.000000 0.000000 0
0.000000 0.000000 0
0.000000 0.000000 0
-0.000318 0.000000 0
-0.000694 0.000000 0
-0.000792 0.000000 0
-0.000814 0.000000 0
-0.000842 0.000000 0
-0.000727 0.000000 0
0.000000 0.000000 0
0.000000 0.000000 0
0.000000 0.000000 0
0.000000 0.000000 0
0.000000 0.000000 0
0.000000 0.000000 0
0.000000 0.000000 0
0.000000 0.000000 0
0.000000 0.000000 0
0.000000 0.000000 0
1.000000 0.000000 0
0.000000 0.000000 0
0.000000 0.000000 0
0.000000 0.000000 0
0.000000 0.000000 0
0.000000 0.000000 0
0.000000 0.000000 0
0.000000 0.000000 0
0.000000 0.000000 0
0.000000 0.000000 0
0.000000 0.000000 0
0.000000 0.000000 0
0.000000 0.000000 0
0.000000 0.000000 0
0.000000 0.000000 0
0.000000 0.000000 0
0.000000 0.000000 0
0.000000 0.000000 0
0.000000 0.000000 0
0.000000 0.000000 0
0.000000 0.000000 0
0.000000 0.000000 0
0.000000 0.000000 0
1.000000 0.000000 0
0.000000 0.000000 0
0.000000 0.000000 0
0.000000 0.000000 0
0.000000 0.000000 0
0.000000 0.000000 0
0.000000 0.000000 0
0.000000 0.000000 0
0.000000 0.000000 0
0.000000 0.000000 0
0.000000 0.000000 0
0.000000 0.000000 0
0.000000 0.000000 0
0.000000 0.000000 0
0.000000 0.000000 0
0.000000 0.000000 0
0.000000 0.000000 0
0.000000 0.000000 0
0.000000 0.000000 0
0.000000 0.000000 0
0.000000 0.000000 0
0.000000 0.000000 0
0.000000 0.000000 0
0.500000 0.000000 0
0.000000 0.000000 0
0.000000 0.000000 0
0.000000 0.000000 0
0.000000 0.000000 0
0.000000 0.000000 0
0.000000 0.000000 0
0.000000 0.000000 0
0.000000 0.000000 0
0.000000 0.000000 0
0.000000 0.000000 0
0.000000 0.000000 0
0.000000 0.000000 0
0.000000 0.000000 0
0.000000 0.000000 0
0.000000 0.000000 0
0.000000 0.000000 0
0.000000 0.000000 0
0.000000 0.000000 0
0.000000 0.000000 0
0.000000 0.000000 0
0.000000 0.000000 0
0.000000 0.000000 0

CELL_DATA 264 
SCALARS pressure float 1 
LOOKUP_TABLE default 
0.000000
0.000000
0.000000
0.000000
0.000000
0.000000
0.000000
0.000000
0.000000
0.000000
0.000000
0.000000
0.000000
0.000000
0.000000
0.000000
0.000000
0.000000
0.000000
0.000000
0.000000
0.000000
0.000000
0.000000
0.000000
0.000000
0.000000
0.000000
0.000000
0.000000
0.000000
0.000000
0.000000
0.000000
0.000000
0.000000
0.000000
0.000000
0.000000
0.000000
0.000000
0.000000
0.000000
0.000000
0.000000
0.000000
0.000000
0.000000
0.000000
0.000000
0.000000
0.000000
0.000000
0.000000
0.000000
0.000000
0.000000
0.000000
0.000000
0.000000
0.000000
0.000000
0.000000
0.000000
0.000000
0.000000
0.000000
0.000000
0.000000
0.000000
0.000000
0.000000
-0.000102
-0.000096
-0.000046
-0.000006
0.000018
0.000065
0.000131
0.000000
0.000000
0.000000
0.000000
0.000000
0.000000
0.000000
0.000000
0.000000
0.000000
0.000000
0.000000
0.000000
0.000000
-0.000102
-0.000102
-0.000096
-0.000046
-0.000006
0.000018
0.000065
0.000131
0.000131
0.000000
0.000000
0.000000
0.000000
0.000000
0.000000
0.000000
0.000000
0.000000
0.000000
0.000000
0.000000
0.000000
-0.000078
-0.000078
-0.000068
-0.000035
-0.000005
0.000024
0.000051
0.000082
0.000082
0.000000
0.000000
0.000000
0.000000
0.000000
0.000000
0.000000
0.000000
0.000000
0.000000
0.000000
0.000000
0.000000
-0.000056
-0.000056
-0.000040
-0.000024
-0.000002
0.000024
0.000038
0.000042
0.000042
0.000000
0.000000
0.000000
0.000000
0.000000
0.000000
0.000000
0.000000
0.000000
0.000000
0.000000
0.000000
0.000000
-0.000032
-0.000032
-0.000011
-0.000013
0.000001
0.000024
0.000025
-0.000007
-0.000007
0.000000
0.000000
0.000000
0.000000
0.000000
0.000000
0.000000
0.000000
0.000000
0.000000
0.000000
0.000000
0.000000
0.000000
-0.000032
-0.000011
-0.000013
0.000001
0.000024
0.000025
-0.000007
0.000000
0.000000
0.000000
0.000000
0.000000
0.000000
0.000000
0.000000
0.000000
0.000000
0.000000
0.000000
0.000000
0.000000
0.000000
0.000000
0.000000
0.000000
0.000000
0.000000
0.000000
0.000000
0.000000
0.000000
0.000000
0.000000
0.000000
0.000000
0.000000
0.000000
0.000000
0.000000
0.000000
0.000000
0.000000
0.000000
0.000000
0.000000
0.000000
0.000000
0.000000
0.000000
0.000000
0.000000
0.000000
0.000000
0.000000
0.000000
0.000000
0.000000
0.000000
0.000000
0.000000
0.000000
0.000000
0.000000
0.000000
0.000000
0.000000
0.000000
0.000000
0.000000
0.000000
0.000000
0.000000
0.000000
0.000000
0.000000
0.000000
0.000000
0.000000
0.000000
0.000000
0.000000
0.000000
